ITEM: TIMESTEP
0
ITEM: NUMBER OF ATOMS
2000
ITEM: BOX BOUNDS pp pp pp
-1.2835000000000001e+01 1.2835000000000001e+01
-1.2835000000000001e+01 1.2835000000000001e+01
-1.2835000000000001e+01 1.2835000000000001e+01
ITEM: ATOMS id type xs ys zs
1 1 0 0 0
2 1 0.05 0.05 0.05
3 1 0.1 0 0
4 1 0.15 0.05 0.05
5 1 0.2 0 0
6 1 0.25 0.05 0.05
21 1 0 0.1 0
22 1 0.05 0.15 0.05
23 1 0.1 0.1 0
24 1 0.15 0.15 0.05
25 1 0.2 0.1 0
26 1 0.25 0.15 0.05
41 1 0 0.2 0
42 1 0.05 0.25 0.05
43 1 0.1 0.2 0
44 1 0.15 0.25 0.05
45 1 0.2 0.2 0
46 1 0.25 0.25 0.05
101 1 0 0 0.1
102 1 0.05 0.05 0.15
103 1 0.1 0 0.1
104 1 0.15 0.05 0.15
105 1 0.2 0 0.1
106 1 0.25 0.05 0.15
121 1 0 0.1 0.1
122 1 0.05 0.15 0.15
123 1 0.1 0.1 0.1
124 1 0.15 0.15 0.15
125 1 0.2 0.1 0.1
126 1 0.25 0.15 0.15
141 1 0 0.2 0.1
142 1 0.05 0.25 0.15
143 1 0.1 0.2 0.1
144 1 0.15 0.25 0.15
145 1 0.2 0.2 0.1
146 1 0.25 0.25 0.15
201 1 0 0 0.2
202 1 0.05 0.05 0.25
203 1 0.1 0 0.2
204 1 0.15 0.05 0.25
205 1 0.2 0 0.2
206 1 0.25 0.05 0.25
221 1 0 0.1 0.2
222 1 0.05 0.15 0.25
223 1 0.1 0.1 0.2
224 1 0.15 0.15 0.25
225 1 0.2 0.1 0.2
226 1 0.25 0.15 0.25
241 1 0 0.2 0.2
242 1 0.05 0.25 0.25
243 1 0.1 0.2 0.2
244 1 0.15 0.25 0.25
245 1 0.2 0.2 0.2
246 1 0.25 0.25 0.25
7 1 0.3 0 0
8 1 0.35 0.05 0.05
9 1 0.4 0 0
10 1 0.45 0.05 0.05
11 1 0.5 0 0
27 1 0.3 0.1 0
28 1 0.35 0.15 0.05
29 1 0.4 0.1 0
30 1 0.45 0.15 0.05
31 1 0.5 0.1 0
47 1 0.3 0.2 0
48 1 0.35 0.25 0.05
49 1 0.4 0.2 0
50 1 0.45 0.25 0.05
51 1 0.5 0.2 0
107 1 0.3 0 0.1
108 1 0.35 0.05 0.15
109 1 0.4 0 0.1
110 1 0.45 0.05 0.15
111 1 0.5 0 0.1
127 1 0.3 0.1 0.1
128 1 0.35 0.15 0.15
129 1 0.4 0.1 0.1
130 1 0.45 0.15 0.15
131 1 0.5 0.1 0.1
147 1 0.3 0.2 0.1
148 1 0.35 0.25 0.15
149 1 0.4 0.2 0.1
150 1 0.45 0.25 0.15
151 1 0.5 0.2 0.1
207 1 0.3 0 0.2
208 1 0.35 0.05 0.25
209 1 0.4 0 0.2
210 1 0.45 0.05 0.25
211 1 0.5 0 0.2
227 1 0.3 0.1 0.2
228 1 0.35 0.15 0.25
229 1 0.4 0.1 0.2
230 1 0.45 0.15 0.25
231 1 0.5 0.1 0.2
247 1 0.3 0.2 0.2
248 1 0.35 0.25 0.25
249 1 0.4 0.2 0.2
250 1 0.45 0.25 0.25
251 1 0.5 0.2 0.2
12 1 0.55 0.05 0.05
13 1 0.6 0 0
14 1 0.65 0.05 0.05
15 1 0.7 0 0
32 1 0.55 0.15 0.05
33 1 0.6 0.1 0
34 1 0.65 0.15 0.05
35 1 0.7 0.1 0
52 1 0.55 0.25 0.05
53 1 0.6 0.2 0
54 1 0.65 0.25 0.05
55 1 0.7 0.2 0
112 1 0.55 0.05 0.15
113 1 0.6 0 0.1
114 1 0.65 0.05 0.15
115 1 0.7 0 0.1
132 1 0.55 0.15 0.15
133 1 0.6 0.1 0.1
134 1 0.65 0.15 0.15
135 1 0.7 0.1 0.1
152 1 0.55 0.25 0.15
153 1 0.6 0.2 0.1
154 1 0.65 0.25 0.15
155 1 0.7 0.2 0.1
212 1 0.55 0.05 0.25
213 1 0.6 0 0.2
214 1 0.65 0.05 0.25
215 1 0.7 0 0.2
232 1 0.55 0.15 0.25
233 1 0.6 0.1 0.2
234 1 0.65 0.15 0.25
235 1 0.7 0.1 0.2
252 1 0.55 0.25 0.25
253 1 0.6 0.2 0.2
254 1 0.65 0.25 0.25
255 1 0.7 0.2 0.2
16 1 0.75 0.05 0.05
17 1 0.8 0 0
18 1 0.85 0.05 0.05
19 1 0.9 0 0
20 1 0.95 0.05 0.05
36 1 0.75 0.15 0.05
37 1 0.8 0.1 0
38 1 0.85 0.15 0.05
39 1 0.9 0.1 0
40 1 0.95 0.15 0.05
56 1 0.75 0.25 0.05
57 1 0.8 0.2 0
58 1 0.85 0.25 0.05
59 1 0.9 0.2 0
60 1 0.95 0.25 0.05
116 1 0.75 0.05 0.15
117 1 0.8 0 0.1
118 1 0.85 0.05 0.15
119 1 0.9 0 0.1
120 1 0.95 0.05 0.15
136 1 0.75 0.15 0.15
137 1 0.8 0.1 0.1
138 1 0.85 0.15 0.15
139 1 0.9 0.1 0.1
140 1 0.95 0.15 0.15
156 1 0.75 0.25 0.15
157 1 0.8 0.2 0.1
158 1 0.85 0.25 0.15
159 1 0.9 0.2 0.1
160 1 0.95 0.25 0.15
216 1 0.75 0.05 0.25
217 1 0.8 0 0.2
218 1 0.85 0.05 0.25
219 1 0.9 0 0.2
220 1 0.95 0.05 0.25
236 1 0.75 0.15 0.25
237 1 0.8 0.1 0.2
238 1 0.85 0.15 0.25
239 1 0.9 0.1 0.2
240 1 0.95 0.15 0.25
256 1 0.75 0.25 0.25
257 1 0.8 0.2 0.2
258 1 0.85 0.25 0.25
259 1 0.9 0.2 0.2
260 1 0.95 0.25 0.25
61 1 0 0.3 0
62 1 0.05 0.35 0.05
63 1 0.1 0.3 0
64 1 0.15 0.35 0.05
65 1 0.2 0.3 0
66 1 0.25 0.35 0.05
81 1 0 0.4 0
82 1 0.05 0.45 0.05
83 1 0.1 0.4 0
84 1 0.15 0.45 0.05
85 1 0.2 0.4 0
86 1 0.25 0.45 0.05
161 1 0 0.3 0.1
162 1 0.05 0.35 0.15
163 1 0.1 0.3 0.1
164 1 0.15 0.35 0.15
165 1 0.2 0.3 0.1
166 1 0.25 0.35 0.15
181 1 0 0.4 0.1
182 1 0.05 0.45 0.15
183 1 0.1 0.4 0.1
184 1 0.15 0.45 0.15
185 1 0.2 0.4 0.1
186 1 0.25 0.45 0.15
261 1 0 0.3 0.2
262 1 0.05 0.35 0.25
263 1 0.1 0.3 0.2
264 1 0.15 0.35 0.25
265 1 0.2 0.3 0.2
266 1 0.25 0.35 0.25
281 1 0 0.4 0.2
282 1 0.05 0.45 0.25
283 1 0.1 0.4 0.2
284 1 0.15 0.45 0.25
285 1 0.2 0.4 0.2
286 1 0.25 0.45 0.25
67 1 0.3 0.3 0
68 1 0.35 0.35 0.05
69 1 0.4 0.3 0
70 1 0.45 0.35 0.05
71 1 0.5 0.3 0
87 1 0.3 0.4 0
88 1 0.35 0.45 0.05
89 1 0.4 0.4 0
90 1 0.45 0.45 0.05
91 1 0.5 0.4 0
167 1 0.3 0.3 0.1
168 1 0.35 0.35 0.15
169 1 0.4 0.3 0.1
170 1 0.45 0.35 0.15
171 1 0.5 0.3 0.1
187 1 0.3 0.4 0.1
188 1 0.35 0.45 0.15
189 1 0.4 0.4 0.1
190 1 0.45 0.45 0.15
191 1 0.5 0.4 0.1
267 1 0.3 0.3 0.2
268 1 0.35 0.35 0.25
269 1 0.4 0.3 0.2
270 1 0.45 0.35 0.25
271 1 0.5 0.3 0.2
287 1 0.3 0.4 0.2
288 1 0.35 0.45 0.25
289 1 0.4 0.4 0.2
290 1 0.45 0.45 0.25
291 1 0.5 0.4 0.2
72 1 0.55 0.35 0.05
73 1 0.6 0.3 0
74 1 0.65 0.35 0.05
75 1 0.7 0.3 0
92 1 0.55 0.45 0.05
93 1 0.6 0.4 0
94 1 0.65 0.45 0.05
95 1 0.7 0.4 0
172 1 0.55 0.35 0.15
173 1 0.6 0.3 0.1
174 1 0.65 0.35 0.15
175 1 0.7 0.3 0.1
192 1 0.55 0.45 0.15
193 1 0.6 0.4 0.1
194 1 0.65 0.45 0.15
195 1 0.7 0.4 0.1
272 1 0.55 0.35 0.25
273 1 0.6 0.3 0.2
274 1 0.65 0.35 0.25
275 1 0.7 0.3 0.2
292 1 0.55 0.45 0.25
293 1 0.6 0.4 0.2
294 1 0.65 0.45 0.25
295 1 0.7 0.4 0.2
76 1 0.75 0.35 0.05
77 1 0.8 0.3 0
78 1 0.85 0.35 0.05
79 1 0.9 0.3 0
80 1 0.95 0.35 0.05
96 1 0.75 0.45 0.05
97 1 0.8 0.4 0
98 1 0.85 0.45 0.05
99 1 0.9 0.4 0
100 1 0.95 0.45 0.05
176 1 0.75 0.35 0.15
177 1 0.8 0.3 0.1
178 1 0.85 0.35 0.15
179 1 0.9 0.3 0.1
180 1 0.95 0.35 0.15
196 1 0.75 0.45 0.15
197 1 0.8 0.4 0.1
198 1 0.85 0.45 0.15
199 1 0.9 0.4 0.1
200 1 0.95 0.45 0.15
276 1 0.75 0.35 0.25
277 1 0.8 0.3 0.2
278 1 0.85 0.35 0.25
279 1 0.9 0.3 0.2
280 1 0.95 0.35 0.25
296 1 0.75 0.45 0.25
297 1 0.8 0.4 0.2
298 1 0.85 0.45 0.25
299 1 0.9 0.4 0.2
300 1 0.95 0.45 0.25
301 1 0 0 0.3
302 1 0.05 0.05 0.35
303 1 0.1 0 0.3
304 1 0.15 0.05 0.35
305 1 0.2 0 0.3
306 1 0.25 0.05 0.35
321 1 0 0.1 0.3
322 1 0.05 0.15 0.35
323 1 0.1 0.1 0.3
324 1 0.15 0.15 0.35
325 1 0.2 0.1 0.3
326 1 0.25 0.15 0.35
341 1 0 0.2 0.3
342 1 0.05 0.25 0.35
343 1 0.1 0.2 0.3
344 1 0.15 0.25 0.35
345 1 0.2 0.2 0.3
346 1 0.25 0.25 0.35
401 1 0 0 0.4
402 1 0.05 0.05 0.45
403 1 0.1 0 0.4
404 1 0.15 0.05 0.45
405 1 0.2 0 0.4
406 1 0.25 0.05 0.45
421 1 0 0.1 0.4
422 1 0.05 0.15 0.45
423 1 0.1 0.1 0.4
424 1 0.15 0.15 0.45
425 1 0.2 0.1 0.4
426 1 0.25 0.15 0.45
441 1 0 0.2 0.4
442 1 0.05 0.25 0.45
443 1 0.1 0.2 0.4
444 1 0.15 0.25 0.45
445 1 0.2 0.2 0.4
446 1 0.25 0.25 0.45
307 1 0.3 0 0.3
308 1 0.35 0.05 0.35
309 1 0.4 0 0.3
310 1 0.45 0.05 0.35
311 1 0.5 0 0.3
327 1 0.3 0.1 0.3
328 1 0.35 0.15 0.35
329 1 0.4 0.1 0.3
330 1 0.45 0.15 0.35
331 1 0.5 0.1 0.3
347 1 0.3 0.2 0.3
348 1 0.35 0.25 0.35
349 1 0.4 0.2 0.3
350 1 0.45 0.25 0.35
351 1 0.5 0.2 0.3
407 1 0.3 0 0.4
408 1 0.35 0.05 0.45
409 1 0.4 0 0.4
410 1 0.45 0.05 0.45
411 1 0.5 0 0.4
427 1 0.3 0.1 0.4
428 1 0.35 0.15 0.45
429 1 0.4 0.1 0.4
430 1 0.45 0.15 0.45
431 1 0.5 0.1 0.4
447 1 0.3 0.2 0.4
448 1 0.35 0.25 0.45
449 1 0.4 0.2 0.4
450 1 0.45 0.25 0.45
451 1 0.5 0.2 0.4
312 1 0.55 0.05 0.35
313 1 0.6 0 0.3
314 1 0.65 0.05 0.35
315 1 0.7 0 0.3
332 1 0.55 0.15 0.35
333 1 0.6 0.1 0.3
334 1 0.65 0.15 0.35
335 1 0.7 0.1 0.3
352 1 0.55 0.25 0.35
353 1 0.6 0.2 0.3
354 1 0.65 0.25 0.35
355 1 0.7 0.2 0.3
412 1 0.55 0.05 0.45
413 1 0.6 0 0.4
414 1 0.65 0.05 0.45
415 1 0.7 0 0.4
432 1 0.55 0.15 0.45
433 1 0.6 0.1 0.4
434 1 0.65 0.15 0.45
435 1 0.7 0.1 0.4
452 1 0.55 0.25 0.45
453 1 0.6 0.2 0.4
454 1 0.65 0.25 0.45
455 1 0.7 0.2 0.4
316 1 0.75 0.05 0.35
317 1 0.8 0 0.3
318 1 0.85 0.05 0.35
319 1 0.9 0 0.3
320 1 0.95 0.05 0.35
336 1 0.75 0.15 0.35
337 1 0.8 0.1 0.3
338 1 0.85 0.15 0.35
339 1 0.9 0.1 0.3
340 1 0.95 0.15 0.35
356 1 0.75 0.25 0.35
357 1 0.8 0.2 0.3
358 1 0.85 0.25 0.35
359 1 0.9 0.2 0.3
360 1 0.95 0.25 0.35
416 1 0.75 0.05 0.45
417 1 0.8 0 0.4
418 1 0.85 0.05 0.45
419 1 0.9 0 0.4
420 1 0.95 0.05 0.45
436 1 0.75 0.15 0.45
437 1 0.8 0.1 0.4
438 1 0.85 0.15 0.45
439 1 0.9 0.1 0.4
440 1 0.95 0.15 0.45
456 1 0.75 0.25 0.45
457 1 0.8 0.2 0.4
458 1 0.85 0.25 0.45
459 1 0.9 0.2 0.4
460 1 0.95 0.25 0.45
361 1 0 0.3 0.3
362 1 0.05 0.35 0.35
363 1 0.1 0.3 0.3
364 1 0.15 0.35 0.35
365 1 0.2 0.3 0.3
366 1 0.25 0.35 0.35
381 1 0 0.4 0.3
382 1 0.05 0.45 0.35
383 1 0.1 0.4 0.3
384 1 0.15 0.45 0.35
385 1 0.2 0.4 0.3
386 1 0.25 0.45 0.35
461 1 0 0.3 0.4
462 1 0.05 0.35 0.45
463 1 0.1 0.3 0.4
464 1 0.15 0.35 0.45
465 1 0.2 0.3 0.4
466 1 0.25 0.35 0.45
481 1 0 0.4 0.4
482 1 0.05 0.45 0.45
483 1 0.1 0.4 0.4
484 1 0.15 0.45 0.45
485 1 0.2 0.4 0.4
486 1 0.25 0.45 0.45
367 1 0.3 0.3 0.3
368 1 0.35 0.35 0.35
369 1 0.4 0.3 0.3
370 1 0.45 0.35 0.35
371 1 0.5 0.3 0.3
387 1 0.3 0.4 0.3
388 1 0.35 0.45 0.35
389 1 0.4 0.4 0.3
390 1 0.45 0.45 0.35
391 1 0.5 0.4 0.3
467 1 0.3 0.3 0.4
468 1 0.35 0.35 0.45
469 1 0.4 0.3 0.4
470 1 0.45 0.35 0.45
471 1 0.5 0.3 0.4
487 1 0.3 0.4 0.4
488 1 0.35 0.45 0.45
489 1 0.4 0.4 0.4
490 1 0.45 0.45 0.45
491 1 0.5 0.4 0.4
372 1 0.55 0.35 0.35
373 1 0.6 0.3 0.3
374 1 0.65 0.35 0.35
375 1 0.7 0.3 0.3
392 1 0.55 0.45 0.35
393 1 0.6 0.4 0.3
394 1 0.65 0.45 0.35
395 1 0.7 0.4 0.3
472 1 0.55 0.35 0.45
473 1 0.6 0.3 0.4
474 1 0.65 0.35 0.45
475 1 0.7 0.3 0.4
492 1 0.55 0.45 0.45
493 1 0.6 0.4 0.4
494 1 0.65 0.45 0.45
495 1 0.7 0.4 0.4
376 1 0.75 0.35 0.35
377 1 0.8 0.3 0.3
378 1 0.85 0.35 0.35
379 1 0.9 0.3 0.3
380 1 0.95 0.35 0.35
396 1 0.75 0.45 0.35
397 1 0.8 0.4 0.3
398 1 0.85 0.45 0.35
399 1 0.9 0.4 0.3
400 1 0.95 0.45 0.35
476 1 0.75 0.35 0.45
477 1 0.8 0.3 0.4
478 1 0.85 0.35 0.45
479 1 0.9 0.3 0.4
480 1 0.95 0.35 0.45
496 1 0.75 0.45 0.45
497 1 0.8 0.4 0.4
498 1 0.85 0.45 0.45
499 1 0.9 0.4 0.4
500 1 0.95 0.45 0.45
501 1 0 0 0.5
502 1 0.05 0.05 0.55
503 1 0.1 0 0.5
504 1 0.15 0.05 0.55
505 1 0.2 0 0.5
506 1 0.25 0.05 0.55
521 1 0 0.1 0.5
522 1 0.05 0.15 0.55
523 1 0.1 0.1 0.5
524 1 0.15 0.15 0.55
525 1 0.2 0.1 0.5
526 1 0.25 0.15 0.55
541 1 0 0.2 0.5
542 1 0.05 0.25 0.55
543 1 0.1 0.2 0.5
544 1 0.15 0.25 0.55
545 1 0.2 0.2 0.5
546 1 0.25 0.25 0.55
601 1 0 0 0.6
602 1 0.05 0.05 0.65
603 1 0.1 0 0.6
604 1 0.15 0.05 0.65
605 1 0.2 0 0.6
606 1 0.25 0.05 0.65
621 1 0 0.1 0.6
622 1 0.05 0.15 0.65
623 1 0.1 0.1 0.6
624 1 0.15 0.15 0.65
625 1 0.2 0.1 0.6
626 1 0.25 0.15 0.65
641 1 0 0.2 0.6
642 1 0.05 0.25 0.65
643 1 0.1 0.2 0.6
644 1 0.15 0.25 0.65
645 1 0.2 0.2 0.6
646 1 0.25 0.25 0.65
701 1 0 0 0.7
702 1 0.05 0.05 0.75
703 1 0.1 0 0.7
704 1 0.15 0.05 0.75
705 1 0.2 0 0.7
706 1 0.25 0.05 0.75
721 1 0 0.1 0.7
722 1 0.05 0.15 0.75
723 1 0.1 0.1 0.7
724 1 0.15 0.15 0.75
725 1 0.2 0.1 0.7
726 1 0.25 0.15 0.75
741 1 0 0.2 0.7
742 1 0.05 0.25 0.75
743 1 0.1 0.2 0.7
744 1 0.15 0.25 0.75
745 1 0.2 0.2 0.7
746 1 0.25 0.25 0.75
507 1 0.3 0 0.5
508 1 0.35 0.05 0.55
509 1 0.4 0 0.5
510 1 0.45 0.05 0.55
511 1 0.5 0 0.5
527 1 0.3 0.1 0.5
528 1 0.35 0.15 0.55
529 1 0.4 0.1 0.5
530 1 0.45 0.15 0.55
531 1 0.5 0.1 0.5
547 1 0.3 0.2 0.5
548 1 0.35 0.25 0.55
549 1 0.4 0.2 0.5
550 1 0.45 0.25 0.55
551 1 0.5 0.2 0.5
607 1 0.3 0 0.6
608 1 0.35 0.05 0.65
609 1 0.4 0 0.6
610 1 0.45 0.05 0.65
611 1 0.5 0 0.6
627 1 0.3 0.1 0.6
628 1 0.35 0.15 0.65
629 1 0.4 0.1 0.6
630 1 0.45 0.15 0.65
631 1 0.5 0.1 0.6
647 1 0.3 0.2 0.6
648 1 0.35 0.25 0.65
649 1 0.4 0.2 0.6
650 1 0.45 0.25 0.65
651 1 0.5 0.2 0.6
707 1 0.3 0 0.7
708 1 0.35 0.05 0.75
709 1 0.4 0 0.7
710 1 0.45 0.05 0.75
711 1 0.5 0 0.7
727 1 0.3 0.1 0.7
728 1 0.35 0.15 0.75
729 1 0.4 0.1 0.7
730 1 0.45 0.15 0.75
731 1 0.5 0.1 0.7
747 1 0.3 0.2 0.7
748 1 0.35 0.25 0.75
749 1 0.4 0.2 0.7
750 1 0.45 0.25 0.75
751 1 0.5 0.2 0.7
512 1 0.55 0.05 0.55
513 1 0.6 0 0.5
514 1 0.65 0.05 0.55
515 1 0.7 0 0.5
532 1 0.55 0.15 0.55
533 1 0.6 0.1 0.5
534 1 0.65 0.15 0.55
535 1 0.7 0.1 0.5
552 1 0.55 0.25 0.55
553 1 0.6 0.2 0.5
554 1 0.65 0.25 0.55
555 1 0.7 0.2 0.5
612 1 0.55 0.05 0.65
613 1 0.6 0 0.6
614 1 0.65 0.05 0.65
615 1 0.7 0 0.6
632 1 0.55 0.15 0.65
633 1 0.6 0.1 0.6
634 1 0.65 0.15 0.65
635 1 0.7 0.1 0.6
652 1 0.55 0.25 0.65
653 1 0.6 0.2 0.6
654 1 0.65 0.25 0.65
655 1 0.7 0.2 0.6
712 1 0.55 0.05 0.75
713 1 0.6 0 0.7
714 1 0.65 0.05 0.75
715 1 0.7 0 0.7
732 1 0.55 0.15 0.75
733 1 0.6 0.1 0.7
734 1 0.65 0.15 0.75
735 1 0.7 0.1 0.7
752 1 0.55 0.25 0.75
753 1 0.6 0.2 0.7
754 1 0.65 0.25 0.75
755 1 0.7 0.2 0.7
516 1 0.75 0.05 0.55
517 1 0.8 0 0.5
518 1 0.85 0.05 0.55
519 1 0.9 0 0.5
520 1 0.95 0.05 0.55
536 1 0.75 0.15 0.55
537 1 0.8 0.1 0.5
538 1 0.85 0.15 0.55
539 1 0.9 0.1 0.5
540 1 0.95 0.15 0.55
556 1 0.75 0.25 0.55
557 1 0.8 0.2 0.5
558 1 0.85 0.25 0.55
559 1 0.9 0.2 0.5
560 1 0.95 0.25 0.55
616 1 0.75 0.05 0.65
617 1 0.8 0 0.6
618 1 0.85 0.05 0.65
619 1 0.9 0 0.6
620 1 0.95 0.05 0.65
636 1 0.75 0.15 0.65
637 1 0.8 0.1 0.6
638 1 0.85 0.15 0.65
639 1 0.9 0.1 0.6
640 1 0.95 0.15 0.65
656 1 0.75 0.25 0.65
657 1 0.8 0.2 0.6
658 1 0.85 0.25 0.65
659 1 0.9 0.2 0.6
660 1 0.95 0.25 0.65
716 1 0.75 0.05 0.75
717 1 0.8 0 0.7
718 1 0.85 0.05 0.75
719 1 0.9 0 0.7
720 1 0.95 0.05 0.75
736 1 0.75 0.15 0.75
737 1 0.8 0.1 0.7
738 1 0.85 0.15 0.75
739 1 0.9 0.1 0.7
740 1 0.95 0.15 0.75
756 1 0.75 0.25 0.75
757 1 0.8 0.2 0.7
758 1 0.85 0.25 0.75
759 1 0.9 0.2 0.7
760 1 0.95 0.25 0.75
561 1 0 0.3 0.5
562 1 0.05 0.35 0.55
563 1 0.1 0.3 0.5
564 1 0.15 0.35 0.55
565 1 0.2 0.3 0.5
566 1 0.25 0.35 0.55
581 1 0 0.4 0.5
582 1 0.05 0.45 0.55
583 1 0.1 0.4 0.5
584 1 0.15 0.45 0.55
585 1 0.2 0.4 0.5
586 1 0.25 0.45 0.55
661 1 0 0.3 0.6
662 1 0.05 0.35 0.65
663 1 0.1 0.3 0.6
664 1 0.15 0.35 0.65
665 1 0.2 0.3 0.6
666 1 0.25 0.35 0.65
681 1 0 0.4 0.6
682 1 0.05 0.45 0.65
683 1 0.1 0.4 0.6
684 1 0.15 0.45 0.65
685 1 0.2 0.4 0.6
686 1 0.25 0.45 0.65
761 1 0 0.3 0.7
762 1 0.05 0.35 0.75
763 1 0.1 0.3 0.7
764 1 0.15 0.35 0.75
765 1 0.2 0.3 0.7
766 1 0.25 0.35 0.75
781 1 0 0.4 0.7
782 1 0.05 0.45 0.75
783 1 0.1 0.4 0.7
784 1 0.15 0.45 0.75
785 1 0.2 0.4 0.7
786 1 0.25 0.45 0.75
567 1 0.3 0.3 0.5
568 1 0.35 0.35 0.55
569 1 0.4 0.3 0.5
570 1 0.45 0.35 0.55
571 1 0.5 0.3 0.5
587 1 0.3 0.4 0.5
588 1 0.35 0.45 0.55
589 1 0.4 0.4 0.5
590 1 0.45 0.45 0.55
591 1 0.5 0.4 0.5
667 1 0.3 0.3 0.6
668 1 0.35 0.35 0.65
669 1 0.4 0.3 0.6
670 1 0.45 0.35 0.65
671 1 0.5 0.3 0.6
687 1 0.3 0.4 0.6
688 1 0.35 0.45 0.65
689 1 0.4 0.4 0.6
690 1 0.45 0.45 0.65
691 1 0.5 0.4 0.6
767 1 0.3 0.3 0.7
768 1 0.35 0.35 0.75
769 1 0.4 0.3 0.7
770 1 0.45 0.35 0.75
771 1 0.5 0.3 0.7
787 1 0.3 0.4 0.7
788 1 0.35 0.45 0.75
789 1 0.4 0.4 0.7
790 1 0.45 0.45 0.75
791 1 0.5 0.4 0.7
572 1 0.55 0.35 0.55
573 1 0.6 0.3 0.5
574 1 0.65 0.35 0.55
575 1 0.7 0.3 0.5
592 1 0.55 0.45 0.55
593 1 0.6 0.4 0.5
594 1 0.65 0.45 0.55
595 1 0.7 0.4 0.5
672 1 0.55 0.35 0.65
673 1 0.6 0.3 0.6
674 1 0.65 0.35 0.65
675 1 0.7 0.3 0.6
692 1 0.55 0.45 0.65
693 1 0.6 0.4 0.6
694 1 0.65 0.45 0.65
695 1 0.7 0.4 0.6
772 1 0.55 0.35 0.75
773 1 0.6 0.3 0.7
774 1 0.65 0.35 0.75
775 1 0.7 0.3 0.7
792 1 0.55 0.45 0.75
793 1 0.6 0.4 0.7
794 1 0.65 0.45 0.75
795 1 0.7 0.4 0.7
576 1 0.75 0.35 0.55
577 1 0.8 0.3 0.5
578 1 0.85 0.35 0.55
579 1 0.9 0.3 0.5
580 1 0.95 0.35 0.55
596 1 0.75 0.45 0.55
597 1 0.8 0.4 0.5
598 1 0.85 0.45 0.55
599 1 0.9 0.4 0.5
600 1 0.95 0.45 0.55
676 1 0.75 0.35 0.65
677 1 0.8 0.3 0.6
678 1 0.85 0.35 0.65
679 1 0.9 0.3 0.6
680 1 0.95 0.35 0.65
696 1 0.75 0.45 0.65
697 1 0.8 0.4 0.6
698 1 0.85 0.45 0.65
699 1 0.9 0.4 0.6
700 1 0.95 0.45 0.65
776 1 0.75 0.35 0.75
777 1 0.8 0.3 0.7
778 1 0.85 0.35 0.75
779 1 0.9 0.3 0.7
780 1 0.95 0.35 0.75
796 1 0.75 0.45 0.75
797 1 0.8 0.4 0.7
798 1 0.85 0.45 0.75
799 1 0.9 0.4 0.7
800 1 0.95 0.45 0.75
801 1 0 0 0.8
802 1 0.05 0.05 0.85
803 1 0.1 0 0.8
804 1 0.15 0.05 0.85
805 1 0.2 0 0.8
806 1 0.25 0.05 0.85
821 1 0 0.1 0.8
822 1 0.05 0.15 0.85
823 1 0.1 0.1 0.8
824 1 0.15 0.15 0.85
825 1 0.2 0.1 0.8
826 1 0.25 0.15 0.85
841 1 0 0.2 0.8
842 1 0.05 0.25 0.85
843 1 0.1 0.2 0.8
844 1 0.15 0.25 0.85
845 1 0.2 0.2 0.8
846 1 0.25 0.25 0.85
901 1 0 0 0.9
902 1 0.05 0.05 0.95
903 1 0.1 0 0.9
904 1 0.15 0.05 0.95
905 1 0.2 0 0.9
906 1 0.25 0.05 0.95
921 1 0 0.1 0.9
922 1 0.05 0.15 0.95
923 1 0.1 0.1 0.9
924 1 0.15 0.15 0.95
925 1 0.2 0.1 0.9
926 1 0.25 0.15 0.95
941 1 0 0.2 0.9
942 1 0.05 0.25 0.95
943 1 0.1 0.2 0.9
944 1 0.15 0.25 0.95
945 1 0.2 0.2 0.9
946 1 0.25 0.25 0.95
807 1 0.3 0 0.8
808 1 0.35 0.05 0.85
809 1 0.4 0 0.8
810 1 0.45 0.05 0.85
811 1 0.5 0 0.8
827 1 0.3 0.1 0.8
828 1 0.35 0.15 0.85
829 1 0.4 0.1 0.8
830 1 0.45 0.15 0.85
831 1 0.5 0.1 0.8
847 1 0.3 0.2 0.8
848 1 0.35 0.25 0.85
849 1 0.4 0.2 0.8
850 1 0.45 0.25 0.85
851 1 0.5 0.2 0.8
907 1 0.3 0 0.9
908 1 0.35 0.05 0.95
909 1 0.4 0 0.9
910 1 0.45 0.05 0.95
911 1 0.5 0 0.9
927 1 0.3 0.1 0.9
928 1 0.35 0.15 0.95
929 1 0.4 0.1 0.9
930 1 0.45 0.15 0.95
931 1 0.5 0.1 0.9
947 1 0.3 0.2 0.9
948 1 0.35 0.25 0.95
949 1 0.4 0.2 0.9
950 1 0.45 0.25 0.95
951 1 0.5 0.2 0.9
812 1 0.55 0.05 0.85
813 1 0.6 0 0.8
814 1 0.65 0.05 0.85
815 1 0.7 0 0.8
832 1 0.55 0.15 0.85
833 1 0.6 0.1 0.8
834 1 0.65 0.15 0.85
835 1 0.7 0.1 0.8
852 1 0.55 0.25 0.85
853 1 0.6 0.2 0.8
854 1 0.65 0.25 0.85
855 1 0.7 0.2 0.8
912 1 0.55 0.05 0.95
913 1 0.6 0 0.9
914 1 0.65 0.05 0.95
915 1 0.7 0 0.9
932 1 0.55 0.15 0.95
933 1 0.6 0.1 0.9
934 1 0.65 0.15 0.95
935 1 0.7 0.1 0.9
952 1 0.55 0.25 0.95
953 1 0.6 0.2 0.9
954 1 0.65 0.25 0.95
955 1 0.7 0.2 0.9
816 1 0.75 0.05 0.85
817 1 0.8 0 0.8
818 1 0.85 0.05 0.85
819 1 0.9 0 0.8
820 1 0.95 0.05 0.85
836 1 0.75 0.15 0.85
837 1 0.8 0.1 0.8
838 1 0.85 0.15 0.85
839 1 0.9 0.1 0.8
840 1 0.95 0.15 0.85
856 1 0.75 0.25 0.85
857 1 0.8 0.2 0.8
858 1 0.85 0.25 0.85
859 1 0.9 0.2 0.8
860 1 0.95 0.25 0.85
916 1 0.75 0.05 0.95
917 1 0.8 0 0.9
918 1 0.85 0.05 0.95
919 1 0.9 0 0.9
920 1 0.95 0.05 0.95
936 1 0.75 0.15 0.95
937 1 0.8 0.1 0.9
938 1 0.85 0.15 0.95
939 1 0.9 0.1 0.9
940 1 0.95 0.15 0.95
956 1 0.75 0.25 0.95
957 1 0.8 0.2 0.9
958 1 0.85 0.25 0.95
959 1 0.9 0.2 0.9
960 1 0.95 0.25 0.95
861 1 0 0.3 0.8
862 1 0.05 0.35 0.85
863 1 0.1 0.3 0.8
864 1 0.15 0.35 0.85
865 1 0.2 0.3 0.8
866 1 0.25 0.35 0.85
881 1 0 0.4 0.8
882 1 0.05 0.45 0.85
883 1 0.1 0.4 0.8
884 1 0.15 0.45 0.85
885 1 0.2 0.4 0.8
886 1 0.25 0.45 0.85
961 1 0 0.3 0.9
962 1 0.05 0.35 0.95
963 1 0.1 0.3 0.9
964 1 0.15 0.35 0.95
965 1 0.2 0.3 0.9
966 1 0.25 0.35 0.95
981 1 0 0.4 0.9
982 1 0.05 0.45 0.95
983 1 0.1 0.4 0.9
984 1 0.15 0.45 0.95
985 1 0.2 0.4 0.9
986 1 0.25 0.45 0.95
867 1 0.3 0.3 0.8
868 1 0.35 0.35 0.85
869 1 0.4 0.3 0.8
870 1 0.45 0.35 0.85
871 1 0.5 0.3 0.8
887 1 0.3 0.4 0.8
888 1 0.35 0.45 0.85
889 1 0.4 0.4 0.8
890 1 0.45 0.45 0.85
891 1 0.5 0.4 0.8
967 1 0.3 0.3 0.9
968 1 0.35 0.35 0.95
969 1 0.4 0.3 0.9
970 1 0.45 0.35 0.95
971 1 0.5 0.3 0.9
987 1 0.3 0.4 0.9
988 1 0.35 0.45 0.95
989 1 0.4 0.4 0.9
990 1 0.45 0.45 0.95
991 1 0.5 0.4 0.9
872 1 0.55 0.35 0.85
873 1 0.6 0.3 0.8
874 1 0.65 0.35 0.85
875 1 0.7 0.3 0.8
892 1 0.55 0.45 0.85
893 1 0.6 0.4 0.8
894 1 0.65 0.45 0.85
895 1 0.7 0.4 0.8
972 1 0.55 0.35 0.95
973 1 0.6 0.3 0.9
974 1 0.65 0.35 0.95
975 1 0.7 0.3 0.9
992 1 0.55 0.45 0.95
993 1 0.6 0.4 0.9
994 1 0.65 0.45 0.95
995 1 0.7 0.4 0.9
876 1 0.75 0.35 0.85
877 1 0.8 0.3 0.8
878 1 0.85 0.35 0.85
879 1 0.9 0.3 0.8
880 1 0.95 0.35 0.85
896 1 0.75 0.45 0.85
897 1 0.8 0.4 0.8
898 1 0.85 0.45 0.85
899 1 0.9 0.4 0.8
900 1 0.95 0.45 0.85
976 1 0.75 0.35 0.95
977 1 0.8 0.3 0.9
978 1 0.85 0.35 0.95
979 1 0.9 0.3 0.9
980 1 0.95 0.35 0.95
996 1 0.75 0.45 0.95
997 1 0.8 0.4 0.9
998 1 0.85 0.45 0.95
999 1 0.9 0.4 0.9
1000 1 0.95 0.45 0.95
1001 1 0 0.5 0
1002 1 0.05 0.55 0.05
1003 1 0.1 0.5 0
1004 1 0.15 0.55 0.05
1005 1 0.2 0.5 0
1006 1 0.25 0.55 0.05
1021 1 0 0.6 0
1022 1 0.05 0.65 0.05
1023 1 0.1 0.6 0
1024 1 0.15 0.65 0.05
1025 1 0.2 0.6 0
1026 1 0.25 0.65 0.05
1041 1 0 0.7 0
1042 1 0.05 0.75 0.05
1043 1 0.1 0.7 0
1044 1 0.15 0.75 0.05
1045 1 0.2 0.7 0
1046 1 0.25 0.75 0.05
1101 1 0 0.5 0.1
1102 1 0.05 0.55 0.15
1103 1 0.1 0.5 0.1
1104 1 0.15 0.55 0.15
1105 1 0.2 0.5 0.1
1106 1 0.25 0.55 0.15
1121 1 0 0.6 0.1
1122 1 0.05 0.65 0.15
1123 1 0.1 0.6 0.1
1124 1 0.15 0.65 0.15
1125 1 0.2 0.6 0.1
1126 1 0.25 0.65 0.15
1141 1 0 0.7 0.1
1142 1 0.05 0.75 0.15
1143 1 0.1 0.7 0.1
1144 1 0.15 0.75 0.15
1145 1 0.2 0.7 0.1
1146 1 0.25 0.75 0.15
1201 1 0 0.5 0.2
1202 1 0.05 0.55 0.25
1203 1 0.1 0.5 0.2
1204 1 0.15 0.55 0.25
1205 1 0.2 0.5 0.2
1206 1 0.25 0.55 0.25
1221 1 0 0.6 0.2
1222 1 0.05 0.65 0.25
1223 1 0.1 0.6 0.2
1224 1 0.15 0.65 0.25
1225 1 0.2 0.6 0.2
1226 1 0.25 0.65 0.25
1241 1 0 0.7 0.2
1242 1 0.05 0.75 0.25
1243 1 0.1 0.7 0.2
1244 1 0.15 0.75 0.25
1245 1 0.2 0.7 0.2
1246 1 0.25 0.75 0.25
1007 1 0.3 0.5 0
1008 1 0.35 0.55 0.05
1009 1 0.4 0.5 0
1010 1 0.45 0.55 0.05
1011 1 0.5 0.5 0
1027 1 0.3 0.6 0
1028 1 0.35 0.65 0.05
1029 1 0.4 0.6 0
1030 1 0.45 0.65 0.05
1031 1 0.5 0.6 0
1047 1 0.3 0.7 0
1048 1 0.35 0.75 0.05
1049 1 0.4 0.7 0
1050 1 0.45 0.75 0.05
1051 1 0.5 0.7 0
1107 1 0.3 0.5 0.1
1108 1 0.35 0.55 0.15
1109 1 0.4 0.5 0.1
1110 1 0.45 0.55 0.15
1111 1 0.5 0.5 0.1
1127 1 0.3 0.6 0.1
1128 1 0.35 0.65 0.15
1129 1 0.4 0.6 0.1
1130 1 0.45 0.65 0.15
1131 1 0.5 0.6 0.1
1147 1 0.3 0.7 0.1
1148 1 0.35 0.75 0.15
1149 1 0.4 0.7 0.1
1150 1 0.45 0.75 0.15
1151 1 0.5 0.7 0.1
1207 1 0.3 0.5 0.2
1208 1 0.35 0.55 0.25
1209 1 0.4 0.5 0.2
1210 1 0.45 0.55 0.25
1211 1 0.5 0.5 0.2
1227 1 0.3 0.6 0.2
1228 1 0.35 0.65 0.25
1229 1 0.4 0.6 0.2
1230 1 0.45 0.65 0.25
1231 1 0.5 0.6 0.2
1247 1 0.3 0.7 0.2
1248 1 0.35 0.75 0.25
1249 1 0.4 0.7 0.2
1250 1 0.45 0.75 0.25
1251 1 0.5 0.7 0.2
1012 1 0.55 0.55 0.05
1013 1 0.6 0.5 0
1014 1 0.65 0.55 0.05
1015 1 0.7 0.5 0
1032 1 0.55 0.65 0.05
1033 1 0.6 0.6 0
1034 1 0.65 0.65 0.05
1035 1 0.7 0.6 0
1052 1 0.55 0.75 0.05
1053 1 0.6 0.7 0
1054 1 0.65 0.75 0.05
1055 1 0.7 0.7 0
1112 1 0.55 0.55 0.15
1113 1 0.6 0.5 0.1
1114 1 0.65 0.55 0.15
1115 1 0.7 0.5 0.1
1132 1 0.55 0.65 0.15
1133 1 0.6 0.6 0.1
1134 1 0.65 0.65 0.15
1135 1 0.7 0.6 0.1
1152 1 0.55 0.75 0.15
1153 1 0.6 0.7 0.1
1154 1 0.65 0.75 0.15
1155 1 0.7 0.7 0.1
1212 1 0.55 0.55 0.25
1213 1 0.6 0.5 0.2
1214 1 0.65 0.55 0.25
1215 1 0.7 0.5 0.2
1232 1 0.55 0.65 0.25
1233 1 0.6 0.6 0.2
1234 1 0.65 0.65 0.25
1235 1 0.7 0.6 0.2
1252 1 0.55 0.75 0.25
1253 1 0.6 0.7 0.2
1254 1 0.65 0.75 0.25
1255 1 0.7 0.7 0.2
1016 1 0.75 0.55 0.05
1017 1 0.8 0.5 0
1018 1 0.85 0.55 0.05
1019 1 0.9 0.5 0
1020 1 0.95 0.55 0.05
1036 1 0.75 0.65 0.05
1037 1 0.8 0.6 0
1038 1 0.85 0.65 0.05
1039 1 0.9 0.6 0
1040 1 0.95 0.65 0.05
1056 1 0.75 0.75 0.05
1057 1 0.8 0.7 0
1058 1 0.85 0.75 0.05
1059 1 0.9 0.7 0
1060 1 0.95 0.75 0.05
1116 1 0.75 0.55 0.15
1117 1 0.8 0.5 0.1
1118 1 0.85 0.55 0.15
1119 1 0.9 0.5 0.1
1120 1 0.95 0.55 0.15
1136 1 0.75 0.65 0.15
1137 1 0.8 0.6 0.1
1138 1 0.85 0.65 0.15
1139 1 0.9 0.6 0.1
1140 1 0.95 0.65 0.15
1156 1 0.75 0.75 0.15
1157 1 0.8 0.7 0.1
1158 1 0.85 0.75 0.15
1159 1 0.9 0.7 0.1
1160 1 0.95 0.75 0.15
1216 1 0.75 0.55 0.25
1217 1 0.8 0.5 0.2
1218 1 0.85 0.55 0.25
1219 1 0.9 0.5 0.2
1220 1 0.95 0.55 0.25
1236 1 0.75 0.65 0.25
1237 1 0.8 0.6 0.2
1238 1 0.85 0.65 0.25
1239 1 0.9 0.6 0.2
1240 1 0.95 0.65 0.25
1256 1 0.75 0.75 0.25
1257 1 0.8 0.7 0.2
1258 1 0.85 0.75 0.25
1259 1 0.9 0.7 0.2
1260 1 0.95 0.75 0.25
1061 1 0 0.8 0
1062 1 0.05 0.85 0.05
1063 1 0.1 0.8 0
1064 1 0.15 0.85 0.05
1065 1 0.2 0.8 0
1066 1 0.25 0.85 0.05
1081 1 0 0.9 0
1082 1 0.05 0.95 0.05
1083 1 0.1 0.9 0
1084 1 0.15 0.95 0.05
1085 1 0.2 0.9 0
1086 1 0.25 0.95 0.05
1161 1 0 0.8 0.1
1162 1 0.05 0.85 0.15
1163 1 0.1 0.8 0.1
1164 1 0.15 0.85 0.15
1165 1 0.2 0.8 0.1
1166 1 0.25 0.85 0.15
1181 1 0 0.9 0.1
1182 1 0.05 0.95 0.15
1183 1 0.1 0.9 0.1
1184 1 0.15 0.95 0.15
1185 1 0.2 0.9 0.1
1186 1 0.25 0.95 0.15
1261 1 0 0.8 0.2
1262 1 0.05 0.85 0.25
1263 1 0.1 0.8 0.2
1264 1 0.15 0.85 0.25
1265 1 0.2 0.8 0.2
1266 1 0.25 0.85 0.25
1281 1 0 0.9 0.2
1282 1 0.05 0.95 0.25
1283 1 0.1 0.9 0.2
1284 1 0.15 0.95 0.25
1285 1 0.2 0.9 0.2
1286 1 0.25 0.95 0.25
1067 1 0.3 0.8 0
1068 1 0.35 0.85 0.05
1069 1 0.4 0.8 0
1070 1 0.45 0.85 0.05
1071 1 0.5 0.8 0
1087 1 0.3 0.9 0
1088 1 0.35 0.95 0.05
1089 1 0.4 0.9 0
1090 1 0.45 0.95 0.05
1091 1 0.5 0.9 0
1167 1 0.3 0.8 0.1
1168 1 0.35 0.85 0.15
1169 1 0.4 0.8 0.1
1170 1 0.45 0.85 0.15
1171 1 0.5 0.8 0.1
1187 1 0.3 0.9 0.1
1188 1 0.35 0.95 0.15
1189 1 0.4 0.9 0.1
1190 1 0.45 0.95 0.15
1191 1 0.5 0.9 0.1
1267 1 0.3 0.8 0.2
1268 1 0.35 0.85 0.25
1269 1 0.4 0.8 0.2
1270 1 0.45 0.85 0.25
1271 1 0.5 0.8 0.2
1287 1 0.3 0.9 0.2
1288 1 0.35 0.95 0.25
1289 1 0.4 0.9 0.2
1290 1 0.45 0.95 0.25
1291 1 0.5 0.9 0.2
1072 1 0.55 0.85 0.05
1073 1 0.6 0.8 0
1074 1 0.65 0.85 0.05
1075 1 0.7 0.8 0
1092 1 0.55 0.95 0.05
1093 1 0.6 0.9 0
1094 1 0.65 0.95 0.05
1095 1 0.7 0.9 0
1172 1 0.55 0.85 0.15
1173 1 0.6 0.8 0.1
1174 1 0.65 0.85 0.15
1175 1 0.7 0.8 0.1
1192 1 0.55 0.95 0.15
1193 1 0.6 0.9 0.1
1194 1 0.65 0.95 0.15
1195 1 0.7 0.9 0.1
1272 1 0.55 0.85 0.25
1273 1 0.6 0.8 0.2
1274 1 0.65 0.85 0.25
1275 1 0.7 0.8 0.2
1292 1 0.55 0.95 0.25
1293 1 0.6 0.9 0.2
1294 1 0.65 0.95 0.25
1295 1 0.7 0.9 0.2
1076 1 0.75 0.85 0.05
1077 1 0.8 0.8 0
1078 1 0.85 0.85 0.05
1079 1 0.9 0.8 0
1080 1 0.95 0.85 0.05
1096 1 0.75 0.95 0.05
1097 1 0.8 0.9 0
1098 1 0.85 0.95 0.05
1099 1 0.9 0.9 0
1100 1 0.95 0.95 0.05
1176 1 0.75 0.85 0.15
1177 1 0.8 0.8 0.1
1178 1 0.85 0.85 0.15
1179 1 0.9 0.8 0.1
1180 1 0.95 0.85 0.15
1196 1 0.75 0.95 0.15
1197 1 0.8 0.9 0.1
1198 1 0.85 0.95 0.15
1199 1 0.9 0.9 0.1
1200 1 0.95 0.95 0.15
1276 1 0.75 0.85 0.25
1277 1 0.8 0.8 0.2
1278 1 0.85 0.85 0.25
1279 1 0.9 0.8 0.2
1280 1 0.95 0.85 0.25
1296 1 0.75 0.95 0.25
1297 1 0.8 0.9 0.2
1298 1 0.85 0.95 0.25
1299 1 0.9 0.9 0.2
1300 1 0.95 0.95 0.25
1301 1 0 0.5 0.3
1302 1 0.05 0.55 0.35
1303 1 0.1 0.5 0.3
1304 1 0.15 0.55 0.35
1305 1 0.2 0.5 0.3
1306 1 0.25 0.55 0.35
1321 1 0 0.6 0.3
1322 1 0.05 0.65 0.35
1323 1 0.1 0.6 0.3
1324 1 0.15 0.65 0.35
1325 1 0.2 0.6 0.3
1326 1 0.25 0.65 0.35
1341 1 0 0.7 0.3
1342 1 0.05 0.75 0.35
1343 1 0.1 0.7 0.3
1344 1 0.15 0.75 0.35
1345 1 0.2 0.7 0.3
1346 1 0.25 0.75 0.35
1401 1 0 0.5 0.4
1402 1 0.05 0.55 0.45
1403 1 0.1 0.5 0.4
1404 1 0.15 0.55 0.45
1405 1 0.2 0.5 0.4
1406 1 0.25 0.55 0.45
1421 1 0 0.6 0.4
1422 1 0.05 0.65 0.45
1423 1 0.1 0.6 0.4
1424 1 0.15 0.65 0.45
1425 1 0.2 0.6 0.4
1426 1 0.25 0.65 0.45
1441 1 0 0.7 0.4
1442 1 0.05 0.75 0.45
1443 1 0.1 0.7 0.4
1444 1 0.15 0.75 0.45
1445 1 0.2 0.7 0.4
1446 1 0.25 0.75 0.45
1307 1 0.3 0.5 0.3
1308 1 0.35 0.55 0.35
1309 1 0.4 0.5 0.3
1310 1 0.45 0.55 0.35
1311 1 0.5 0.5 0.3
1327 1 0.3 0.6 0.3
1328 1 0.35 0.65 0.35
1329 1 0.4 0.6 0.3
1330 1 0.45 0.65 0.35
1331 1 0.5 0.6 0.3
1347 1 0.3 0.7 0.3
1348 1 0.35 0.75 0.35
1349 1 0.4 0.7 0.3
1350 1 0.45 0.75 0.35
1351 1 0.5 0.7 0.3
1407 1 0.3 0.5 0.4
1408 1 0.35 0.55 0.45
1409 1 0.4 0.5 0.4
1410 1 0.45 0.55 0.45
1411 1 0.5 0.5 0.4
1427 1 0.3 0.6 0.4
1428 1 0.35 0.65 0.45
1429 1 0.4 0.6 0.4
1430 1 0.45 0.65 0.45
1431 1 0.5 0.6 0.4
1447 1 0.3 0.7 0.4
1448 1 0.35 0.75 0.45
1449 1 0.4 0.7 0.4
1450 1 0.45 0.75 0.45
1451 1 0.5 0.7 0.4
1312 1 0.55 0.55 0.35
1313 1 0.6 0.5 0.3
1314 1 0.65 0.55 0.35
1315 1 0.7 0.5 0.3
1332 1 0.55 0.65 0.35
1333 1 0.6 0.6 0.3
1334 1 0.65 0.65 0.35
1335 1 0.7 0.6 0.3
1352 1 0.55 0.75 0.35
1353 1 0.6 0.7 0.3
1354 1 0.65 0.75 0.35
1355 1 0.7 0.7 0.3
1412 1 0.55 0.55 0.45
1413 1 0.6 0.5 0.4
1414 1 0.65 0.55 0.45
1415 1 0.7 0.5 0.4
1432 1 0.55 0.65 0.45
1433 1 0.6 0.6 0.4
1434 1 0.65 0.65 0.45
1435 1 0.7 0.6 0.4
1452 1 0.55 0.75 0.45
1453 1 0.6 0.7 0.4
1454 1 0.65 0.75 0.45
1455 1 0.7 0.7 0.4
1316 1 0.75 0.55 0.35
1317 1 0.8 0.5 0.3
1318 1 0.85 0.55 0.35
1319 1 0.9 0.5 0.3
1320 1 0.95 0.55 0.35
1336 1 0.75 0.65 0.35
1337 1 0.8 0.6 0.3
1338 1 0.85 0.65 0.35
1339 1 0.9 0.6 0.3
1340 1 0.95 0.65 0.35
1356 1 0.75 0.75 0.35
1357 1 0.8 0.7 0.3
1358 1 0.85 0.75 0.35
1359 1 0.9 0.7 0.3
1360 1 0.95 0.75 0.35
1416 1 0.75 0.55 0.45
1417 1 0.8 0.5 0.4
1418 1 0.85 0.55 0.45
1419 1 0.9 0.5 0.4
1420 1 0.95 0.55 0.45
1436 1 0.75 0.65 0.45
1437 1 0.8 0.6 0.4
1438 1 0.85 0.65 0.45
1439 1 0.9 0.6 0.4
1440 1 0.95 0.65 0.45
1456 1 0.75 0.75 0.45
1457 1 0.8 0.7 0.4
1458 1 0.85 0.75 0.45
1459 1 0.9 0.7 0.4
1460 1 0.95 0.75 0.45
1361 1 0 0.8 0.3
1362 1 0.05 0.85 0.35
1363 1 0.1 0.8 0.3
1364 1 0.15 0.85 0.35
1365 1 0.2 0.8 0.3
1366 1 0.25 0.85 0.35
1381 1 0 0.9 0.3
1382 1 0.05 0.95 0.35
1383 1 0.1 0.9 0.3
1384 1 0.15 0.95 0.35
1385 1 0.2 0.9 0.3
1386 1 0.25 0.95 0.35
1461 1 0 0.8 0.4
1462 1 0.05 0.85 0.45
1463 1 0.1 0.8 0.4
1464 1 0.15 0.85 0.45
1465 1 0.2 0.8 0.4
1466 1 0.25 0.85 0.45
1481 1 0 0.9 0.4
1482 1 0.05 0.95 0.45
1483 1 0.1 0.9 0.4
1484 1 0.15 0.95 0.45
1485 1 0.2 0.9 0.4
1486 1 0.25 0.95 0.45
1367 1 0.3 0.8 0.3
1368 1 0.35 0.85 0.35
1369 1 0.4 0.8 0.3
1370 1 0.45 0.85 0.35
1371 1 0.5 0.8 0.3
1387 1 0.3 0.9 0.3
1388 1 0.35 0.95 0.35
1389 1 0.4 0.9 0.3
1390 1 0.45 0.95 0.35
1391 1 0.5 0.9 0.3
1467 1 0.3 0.8 0.4
1468 1 0.35 0.85 0.45
1469 1 0.4 0.8 0.4
1470 1 0.45 0.85 0.45
1471 1 0.5 0.8 0.4
1487 1 0.3 0.9 0.4
1488 1 0.35 0.95 0.45
1489 1 0.4 0.9 0.4
1490 1 0.45 0.95 0.45
1491 1 0.5 0.9 0.4
1372 1 0.55 0.85 0.35
1373 1 0.6 0.8 0.3
1374 1 0.65 0.85 0.35
1375 1 0.7 0.8 0.3
1392 1 0.55 0.95 0.35
1393 1 0.6 0.9 0.3
1394 1 0.65 0.95 0.35
1395 1 0.7 0.9 0.3
1472 1 0.55 0.85 0.45
1473 1 0.6 0.8 0.4
1474 1 0.65 0.85 0.45
1475 1 0.7 0.8 0.4
1492 1 0.55 0.95 0.45
1493 1 0.6 0.9 0.4
1494 1 0.65 0.95 0.45
1495 1 0.7 0.9 0.4
1376 1 0.75 0.85 0.35
1377 1 0.8 0.8 0.3
1378 1 0.85 0.85 0.35
1379 1 0.9 0.8 0.3
1380 1 0.95 0.85 0.35
1396 1 0.75 0.95 0.35
1397 1 0.8 0.9 0.3
1398 1 0.85 0.95 0.35
1399 1 0.9 0.9 0.3
1400 1 0.95 0.95 0.35
1476 1 0.75 0.85 0.45
1477 1 0.8 0.8 0.4
1478 1 0.85 0.85 0.45
1479 1 0.9 0.8 0.4
1480 1 0.95 0.85 0.45
1496 1 0.75 0.95 0.45
1497 1 0.8 0.9 0.4
1498 1 0.85 0.95 0.45
1499 1 0.9 0.9 0.4
1500 1 0.95 0.95 0.45
1501 1 0 0.5 0.5
1502 1 0.05 0.55 0.55
1503 1 0.1 0.5 0.5
1504 1 0.15 0.55 0.55
1505 1 0.2 0.5 0.5
1506 1 0.25 0.55 0.55
1521 1 0 0.6 0.5
1522 1 0.05 0.65 0.55
1523 1 0.1 0.6 0.5
1524 1 0.15 0.65 0.55
1525 1 0.2 0.6 0.5
1526 1 0.25 0.65 0.55
1541 1 0 0.7 0.5
1542 1 0.05 0.75 0.55
1543 1 0.1 0.7 0.5
1544 1 0.15 0.75 0.55
1545 1 0.2 0.7 0.5
1546 1 0.25 0.75 0.55
1601 1 0 0.5 0.6
1602 1 0.05 0.55 0.65
1603 1 0.1 0.5 0.6
1604 1 0.15 0.55 0.65
1605 1 0.2 0.5 0.6
1606 1 0.25 0.55 0.65
1621 1 0 0.6 0.6
1622 1 0.05 0.65 0.65
1623 1 0.1 0.6 0.6
1624 1 0.15 0.65 0.65
1625 1 0.2 0.6 0.6
1626 1 0.25 0.65 0.65
1641 1 0 0.7 0.6
1642 1 0.05 0.75 0.65
1643 1 0.1 0.7 0.6