ITEM: TIMESTEP
0
ITEM: NUMBER OF ATOMS
4000
ITEM: BOX BOUNDS pp pp pp
-1.7984999999999999e+01 1.7984999999999999e+01
-1.7984999999999999e+01 1.7984999999999999e+01
-1.7984999999999999e+01 1.7984999999999999e+01
ITEM: ATOMS id type xs ys zs
1 1 0 0 0
2 1 0.05 0.05 0
3 1 0.05 0 0.05
4 1 0 0.05 0.05
5 1 0.1 0 0
6 1 0.15 0.05 0
7 1 0.15 0 0.05
8 1 0.1 0.05 0.05
41 1 0 0.1 0
42 1 0.05 0.15 0
43 1 0.05 0.1 0.05
44 1 0 0.15 0.05
45 1 0.1 0.1 0
46 1 0.15 0.15 0
47 1 0.15 0.1 0.05
48 1 0.1 0.15 0.05
201 1 0 0 0.1
202 1 0.05 0.05 0.1
203 1 0.05 0 0.15
204 1 0 0.05 0.15
205 1 0.1 0 0.1
206 1 0.15 0.05 0.1
207 1 0.15 0 0.15
208 1 0.1 0.05 0.15
241 1 0 0.1 0.1
242 1 0.05 0.15 0.1
243 1 0.05 0.1 0.15
244 1 0 0.15 0.15
245 1 0.1 0.1 0.1
246 1 0.15 0.15 0.1
247 1 0.15 0.1 0.15
248 1 0.1 0.15 0.15
9 1 0.2 0 0
10 1 0.25 0.05 0
11 1 0.25 0 0.05
12 1 0.2 0.05 0.05
13 1 0.3 0 0
16 1 0.3 0.05 0.05
49 1 0.2 0.1 0
50 1 0.25 0.15 0
51 1 0.25 0.1 0.05
52 1 0.2 0.15 0.05
53 1 0.3 0.1 0
56 1 0.3 0.15 0.05
209 1 0.2 0 0.1
210 1 0.25 0.05 0.1
211 1 0.25 0 0.15
212 1 0.2 0.05 0.15
213 1 0.3 0 0.1
216 1 0.3 0.05 0.15
249 1 0.2 0.1 0.1
250 1 0.25 0.15 0.1
251 1 0.25 0.1 0.15
252 1 0.2 0.15 0.15
253 1 0.3 0.1 0.1
256 1 0.3 0.15 0.15
14 1 0.35 0.05 0
15 1 0.35 0 0.05
17 1 0.4 0 0
18 1 0.45 0.05 0
19 1 0.45 0 0.05
20 1 0.4 0.05 0.05
54 1 0.35 0.15 0
55 1 0.35 0.1 0.05
57 1 0.4 0.1 0
58 1 0.45 0.15 0
59 1 0.45 0.1 0.05
60 1 0.4 0.15 0.05
214 1 0.35 0.05 0.1
215 1 0.35 0 0.15
217 1 0.4 0 0.1
218 1 0.45 0.05 0.1
219 1 0.45 0 0.15
220 1 0.4 0.05 0.15
254 1 0.35 0.15 0.1
255 1 0.35 0.1 0.15
257 1 0.4 0.1 0.1
258 1 0.45 0.15 0.1
259 1 0.45 0.1 0.15
260 1 0.4 0.15 0.15
21 1 0.5 0 0
22 1 0.55 0.05 0
23 1 0.55 0 0.05
24 1 0.5 0.05 0.05
25 1 0.6 0 0
26 1 0.65 0.05 0
27 1 0.65 0 0.05
28 1 0.6 0.05 0.05
61 1 0.5 0.1 0
62 1 0.55 0.15 0
63 1 0.55 0.1 0.05
64 1 0.5 0.15 0.05
65 1 0.6 0.1 0
66 1 0.65 0.15 0
67 1 0.65 0.1 0.05
68 1 0.6 0.15 0.05
221 1 0.5 0 0.1
222 1 0.55 0.05 0.1
223 1 0.55 0 0.15
224 1 0.5 0.05 0.15
225 1 0.6 0 0.1
226 1 0.65 0.05 0.1
227 1 0.65 0 0.15
228 1 0.6 0.05 0.15
261 1 0.5 0.1 0.1
262 1 0.55 0.15 0.1
263 1 0.55 0.1 0.15
264 1 0.5 0.15 0.15
265 1 0.6 0.1 0.1
266 1 0.65 0.15 0.1
267 1 0.65 0.1 0.15
268 1 0.6 0.15 0.15
29 1 0.7 0 0
30 1 0.75 0.05 0
31 1 0.75 0 0.05
32 1 0.7 0.05 0.05
33 1 0.8 0 0
36 1 0.8 0.05 0.05
69 1 0.7 0.1 0
70 1 0.75 0.15 0
71 1 0.75 0.1 0.05
72 1 0.7 0.15 0.05
73 1 0.8 0.1 0
76 1 0.8 0.15 0.05
229 1 0.7 0 0.1
230 1 0.75 0.05 0.1
231 1 0.75 0 0.15
232 1 0.7 0.05 0.15
233 1 0.8 0 0.1
236 1 0.8 0.05 0.15
269 1 0.7 0.1 0.1
270 1 0.75 0.15 0.1
271 1 0.75 0.1 0.15
272 1 0.7 0.15 0.15
273 1 0.8 0.1 0.1
276 1 0.8 0.15 0.15
34 1 0.85 0.05 0
35 1 0.85 0 0.05
37 1 0.9 0 0
38 1 0.95 0.05 0
39 1 0.95 0 0.05
40 1 0.9 0.05 0.05
74 1 0.85 0.15 0
75 1 0.85 0.1 0.05
77 1 0.9 0.1 0
78 1 0.95 0.15 0
79 1 0.95 0.1 0.05
80 1 0.9 0.15 0.05
234 1 0.85 0.05 0.1
235 1 0.85 0 0.15
237 1 0.9 0 0.1
238 1 0.95 0.05 0.1
239 1 0.95 0 0.15
240 1 0.9 0.05 0.15
274 1 0.85 0.15 0.1
275 1 0.85 0.1 0.15
277 1 0.9 0.1 0.1
278 1 0.95 0.15 0.1
279 1 0.95 0.1 0.15
280 1 0.9 0.15 0.15
81 1 0 0.2 0
82 1 0.05 0.25 0
83 1 0.05 0.2 0.05
84 1 0 0.25 0.05
85 1 0.1 0.2 0
86 1 0.15 0.25 0
87 1 0.15 0.2 0.05
88 1 0.1 0.25 0.05
121 1 0 0.3 0
123 1 0.05 0.3 0.05
125 1 0.1 0.3 0
127 1 0.15 0.3 0.05
281 1 0 0.2 0.1
282 1 0.05 0.25 0.1
283 1 0.05 0.2 0.15
284 1 0 0.25 0.15
285 1 0.1 0.2 0.1
286 1 0.15 0.25 0.1
287 1 0.15 0.2 0.15
288 1 0.1 0.25 0.15
321 1 0 0.3 0.1
323 1 0.05 0.3 0.15
325 1 0.1 0.3 0.1
327 1 0.15 0.3 0.15
89 1 0.2 0.2 0
90 1 0.25 0.25 0
91 1 0.25 0.2 0.05
92 1 0.2 0.25 0.05
93 1 0.3 0.2 0
96 1 0.3 0.25 0.05
129 1 0.2 0.3 0
131 1 0.25 0.3 0.05
133 1 0.3 0.3 0
289 1 0.2 0.2 0.1
290 1 0.25 0.25 0.1
291 1 0.25 0.2 0.15
292 1 0.2 0.25 0.15
293 1 0.3 0.2 0.1
296 1 0.3 0.25 0.15
329 1 0.2 0.3 0.1
331 1 0.25 0.3 0.15
333 1 0.3 0.3 0.1
94 1 0.35 0.25 0
95 1 0.35 0.2 0.05
97 1 0.4 0.2 0
98 1 0.45 0.25 0
99 1 0.45 0.2 0.05
100 1 0.4 0.25 0.05
135 1 0.35 0.3 0.05
137 1 0.4 0.3 0
139 1 0.45 0.3 0.05
294 1 0.35 0.25 0.1
295 1 0.35 0.2 0.15
297 1 0.4 0.2 0.1
298 1 0.45 0.25 0.1
299 1 0.45 0.2 0.15
300 1 0.4 0.25 0.15
335 1 0.35 0.3 0.15
337 1 0.4 0.3 0.1
339 1 0.45 0.3 0.15
101 1 0.5 0.2 0
102 1 0.55 0.25 0
103 1 0.55 0.2 0.05
104 1 0.5 0.25 0.05
105 1 0.6 0.2 0
106 1 0.65 0.25 0
107 1 0.65 0.2 0.05
108 1 0.6 0.25 0.05
141 1 0.5 0.3 0
143 1 0.55 0.3 0.05
145 1 0.6 0.3 0
147 1 0.65 0.3 0.05
301 1 0.5 0.2 0.1
302 1 0.55 0.25 0.1
303 1 0.55 0.2 0.15
304 1 0.5 0.25 0.15
305 1 0.6 0.2 0.1
306 1 0.65 0.25 0.1
307 1 0.65 0.2 0.15
308 1 0.6 0.25 0.15
341 1 0.5 0.3 0.1
343 1 0.55 0.3 0.15
345 1 0.6 0.3 0.1
347 1 0.65 0.3 0.15
109 1 0.7 0.2 0
110 1 0.75 0.25 0
111 1 0.75 0.2 0.05
112 1 0.7 0.25 0.05
113 1 0.8 0.2 0
116 1 0.8 0.25 0.05
149 1 0.7 0.3 0
151 1 0.75 0.3 0.05
153 1 0.8 0.3 0
309 1 0.7 0.2 0.1
310 1 0.75 0.25 0.1
311 1 0.75 0.2 0.15
312 1 0.7 0.25 0.15
313 1 0.8 0.2 0.1
316 1 0.8 0.25 0.15
349 1 0.7 0.3 0.1
351 1 0.75 0.3 0.15
353 1 0.8 0.3 0.1
114 1 0.85 0.25 0
115 1 0.85 0.2 0.05
117 1 0.9 0.2 0
118 1 0.95 0.25 0
119 1 0.95 0.2 0.05
120 1 0.9 0.25 0.05
155 1 0.85 0.3 0.05
157 1 0.9 0.3 0
159 1 0.95 0.3 0.05
314 1 0.85 0.25 0.1
315 1 0.85 0.2 0.15
317 1 0.9 0.2 0.1
318 1 0.95 0.25 0.1
319 1 0.95 0.2 0.15
320 1 0.9 0.25 0.15
355 1 0.85 0.3 0.15
357 1 0.9 0.3 0.1
359 1 0.95 0.3 0.15
122 1 0.05 0.35 0
124 1 0 0.35 0.05
126 1 0.15 0.35 0
128 1 0.1 0.35 0.05
161 1 0 0.4 0
162 1 0.05 0.45 0
163 1 0.05 0.4 0.05
164 1 0 0.45 0.05
165 1 0.1 0.4 0
166 1 0.15 0.45 0
167 1 0.15 0.4 0.05
168 1 0.1 0.45 0.05
322 1 0.05 0.35 0.1
324 1 0 0.35 0.15
326 1 0.15 0.35 0.1
328 1 0.1 0.35 0.15
361 1 0 0.4 0.1
362 1 0.05 0.45 0.1
363 1 0.05 0.4 0.15
364 1 0 0.45 0.15
365 1 0.1 0.4 0.1
366 1 0.15 0.45 0.1
367 1 0.15 0.4 0.15
368 1 0.1 0.45 0.15
130 1 0.25 0.35 0
132 1 0.2 0.35 0.05
136 1 0.3 0.35 0.05
169 1 0.2 0.4 0
170 1 0.25 0.45 0
171 1 0.25 0.4 0.05
172 1 0.2 0.45 0.05
173 1 0.3 0.4 0
176 1 0.3 0.45 0.05
330 1 0.25 0.35 0.1
332 1 0.2 0.35 0.15
336 1 0.3 0.35 0.15
369 1 0.2 0.4 0.1
370 1 0.25 0.45 0.1
371 1 0.25 0.4 0.15
372 1 0.2 0.45 0.15
373 1 0.3 0.4 0.1
376 1 0.3 0.45 0.15
134 1 0.35 0.35 0
138 1 0.45 0.35 0
140 1 0.4 0.35 0.05
174 1 0.35 0.45 0
175 1 0.35 0.4 0.05
177 1 0.4 0.4 0
178 1 0.45 0.45 0
179 1 0.45 0.4 0.05
180 1 0.4 0.45 0.05
334 1 0.35 0.35 0.1
338 1 0.45 0.35 0.1
340 1 0.4 0.35 0.15
374 1 0.35 0.45 0.1
375 1 0.35 0.4 0.15
377 1 0.4 0.4 0.1
378 1 0.45 0.45 0.1
379 1 0.45 0.4 0.15
380 1 0.4 0.45 0.15
142 1 0.55 0.35 0
144 1 0.5 0.35 0.05
146 1 0.65 0.35 0
148 1 0.6 0.35 0.05
181 1 0.5 0.4 0
182 1 0.55 0.45 0
183 1 0.55 0.4 0.05
184 1 0.5 0.45 0.05
185 1 0.6 0.4 0
186 1 0.65 0.45 0
187 1 0.65 0.4 0.05
188 1 0.6 0.45 0.05
342 1 0.55 0.35 0.1
344 1 0.5 0.35 0.15
346 1 0.65 0.35 0.1
348 1 0.6 0.35 0.15
381 1 0.5 0.4 0.1
382 1 0.55 0.45 0.1
383 1 0.55 0.4 0.15
384 1 0.5 0.45 0.15
385 1 0.6 0.4 0.1
386 1 0.65 0.45 0.1
387 1 0.65 0.4 0.15
388 1 0.6 0.45 0.15
150 1 0.75 0.35 0
152 1 0.7 0.35 0.05
156 1 0.8 0.35 0.05
189 1 0.7 0.4 0
190 1 0.75 0.45 0
191 1 0.75 0.4 0.05
192 1 0.7 0.45 0.05
193 1 0.8 0.4 0
196 1 0.8 0.45 0.05
350 1 0.75 0.35 0.1
352 1 0.7 0.35 0.15
356 1 0.8 0.35 0.15
389 1 0.7 0.4 0.1
390 1 0.75 0.45 0.1
391 1 0.75 0.4 0.15
392 1 0.7 0.45 0.15
393 1 0.8 0.4 0.1
396 1 0.8 0.45 0.15
154 1 0.85 0.35 0
158 1 0.95 0.35 0
160 1 0.9 0.35 0.05
194 1 0.85 0.45 0
195 1 0.85 0.4 0.05
197 1 0.9 0.4 0
198 1 0.95 0.45 0
199 1 0.95 0.4 0.05
200 1 0.9 0.45 0.05
354 1 0.85 0.35 0.1
358 1 0.95 0.35 0.1
360 1 0.9 0.35 0.15
394 1 0.85 0.45 0.1
395 1 0.85 0.4 0.15
397 1 0.9 0.4 0.1
398 1 0.95 0.45 0.1
399 1 0.95 0.4 0.15
400 1 0.9 0.45 0.15
401 1 0 0 0.2
402 1 0.05 0.05 0.2
403 1 0.05 0 0.25
404 1 0 0.05 0.25
405 1 0.1 0 0.2
406 1 0.15 0.05 0.2
407 1 0.15 0 0.25
408 1 0.1 0.05 0.25
441 1 0 0.1 0.2
442 1 0.05 0.15 0.2
443 1 0.05 0.1 0.25
444 1 0 0.15 0.25
445 1 0.1 0.1 0.2
446 1 0.15 0.15 0.2
447 1 0.15 0.1 0.25
448 1 0.1 0.15 0.25
601 1 0 0 0.3
602 1 0.05 0.05 0.3
605 1 0.1 0 0.3
606 1 0.15 0.05 0.3
641 1 0 0.1 0.3
642 1 0.05 0.15 0.3
645 1 0.1 0.1 0.3
646 1 0.15 0.15 0.3
409 1 0.2 0 0.2
410 1 0.25 0.05 0.2
411 1 0.25 0 0.25
412 1 0.2 0.05 0.25
413 1 0.3 0 0.2
416 1 0.3 0.05 0.25
449 1 0.2 0.1 0.2
450 1 0.25 0.15 0.2
451 1 0.25 0.1 0.25
452 1 0.2 0.15 0.25
453 1 0.3 0.1 0.2
456 1 0.3 0.15 0.25
609 1 0.2 0 0.3
610 1 0.25 0.05 0.3
613 1 0.3 0 0.3
649 1 0.2 0.1 0.3
650 1 0.25 0.15 0.3
653 1 0.3 0.1 0.3
414 1 0.35 0.05 0.2
415 1 0.35 0 0.25
417 1 0.4 0 0.2
418 1 0.45 0.05 0.2
419 1 0.45 0 0.25
420 1 0.4 0.05 0.25
454 1 0.35 0.15 0.2
455 1 0.35 0.1 0.25
457 1 0.4 0.1 0.2
458 1 0.45 0.15 0.2
459 1 0.45 0.1 0.25
460 1 0.4 0.15 0.25
614 1 0.35 0.05 0.3
617 1 0.4 0 0.3
618 1 0.45 0.05 0.3
654 1 0.35 0.15 0.3
657 1 0.4 0.1 0.3
658 1 0.45 0.15 0.3
421 1 0.5 0 0.2
422 1 0.55 0.05 0.2
423 1 0.55 0 0.25
424 1 0.5 0.05 0.25
425 1 0.6 0 0.2
426 1 0.65 0.05 0.2
427 1 0.65 0 0.25
428 1 0.6 0.05 0.25
461 1 0.5 0.1 0.2
462 1 0.55 0.15 0.2
463 1 0.55 0.1 0.25
464 1 0.5 0.15 0.25
465 1 0.6 0.1 0.2
466 1 0.65 0.15 0.2
467 1 0.65 0.1 0.25
468 1 0.6 0.15 0.25
621 1 0.5 0 0.3
622 1 0.55 0.05 0.3
625 1 0.6 0 0.3
626 1 0.65 0.05 0.3
661 1 0.5 0.1 0.3
662 1 0.55 0.15 0.3
665 1 0.6 0.1 0.3
666 1 0.65 0.15 0.3
429 1 0.7 0 0.2
430 1 0.75 0.05 0.2
431 1 0.75 0 0.25
432 1 0.7 0.05 0.25
433 1 0.8 0 0.2
436 1 0.8 0.05 0.25
469 1 0.7 0.1 0.2
470 1 0.75 0.15 0.2
471 1 0.75 0.1 0.25
472 1 0.7 0.15 0.25
473 1 0.8 0.1 0.2
476 1 0.8 0.15 0.25
629 1 0.7 0 0.3
630 1 0.75 0.05 0.3
633 1 0.8 0 0.3
669 1 0.7 0.1 0.3
670 1 0.75 0.15 0.3
673 1 0.8 0.1 0.3
434 1 0.85 0.05 0.2
435 1 0.85 0 0.25
437 1 0.9 0 0.2
438 1 0.95 0.05 0.2
439 1 0.95 0 0.25
440 1 0.9 0.05 0.25
474 1 0.85 0.15 0.2
475 1 0.85 0.1 0.25
477 1 0.9 0.1 0.2
478 1 0.95 0.15 0.2
479 1 0.95 0.1 0.25
480 1 0.9 0.15 0.25
634 1 0.85 0.05 0.3
637 1 0.9 0 0.3
638 1 0.95 0.05 0.3
674 1 0.85 0.15 0.3
677 1 0.9 0.1 0.3
678 1 0.95 0.15 0.3
481 1 0 0.2 0.2
482 1 0.05 0.25 0.2
483 1 0.05 0.2 0.25
484 1 0 0.25 0.25
485 1 0.1 0.2 0.2
486 1 0.15 0.25 0.2
487 1 0.15 0.2 0.25
488 1 0.1 0.25 0.25
521 1 0 0.3 0.2
523 1 0.05 0.3 0.25
525 1 0.1 0.3 0.2
527 1 0.15 0.3 0.25
681 1 0 0.2 0.3
682 1 0.05 0.25 0.3
685 1 0.1 0.2 0.3
686 1 0.15 0.25 0.3
721 1 0 0.3 0.3
725 1 0.1 0.3 0.3
489 1 0.2 0.2 0.2
490 1 0.25 0.25 0.2
491 1 0.25 0.2 0.25
492 1 0.2 0.25 0.25
493 1 0.3 0.2 0.2
496 1 0.3 0.25 0.25
529 1 0.2 0.3 0.2
531 1 0.25 0.3 0.25
533 1 0.3 0.3 0.2
689 1 0.2 0.2 0.3
690 1 0.25 0.25 0.3
693 1 0.3 0.2 0.3
729 1 0.2 0.3 0.3
733 1 0.3 0.3 0.3
494 1 0.35 0.25 0.2
495 1 0.35 0.2 0.25
497 1 0.4 0.2 0.2
498 1 0.45 0.25 0.2
499 1 0.45 0.2 0.25
500 1 0.4 0.25 0.25
535 1 0.35 0.3 0.25
537 1 0.4 0.3 0.2
539 1 0.45 0.3 0.25
694 1 0.35 0.25 0.3
697 1 0.4 0.2 0.3
698 1 0.45 0.25 0.3
737 1 0.4 0.3 0.3
501 1 0.5 0.2 0.2
502 1 0.55 0.25 0.2
503 1 0.55 0.2 0.25
504 1 0.5 0.25 0.25
505 1 0.6 0.2 0.2
506 1 0.65 0.25 0.2
507 1 0.65 0.2 0.25
508 1 0.6 0.25 0.25
541 1 0.5 0.3 0.2
543 1 0.55 0.3 0.25
545 1 0.6 0.3 0.2
547 1 0.65 0.3 0.25
701 1 0.5 0.2 0.3
702 1 0.55 0.25 0.3
705 1 0.6 0.2 0.3
706 1 0.65 0.25 0.3
741 1 0.5 0.3 0.3
745 1 0.6 0.3 0.3
509 1 0.7 0.2 0.2
510 1 0.75 0.25 0.2
511 1 0.75 0.2 0.25
512 1 0.7 0.25 0.25
513 1 0.8 0.2 0.2
516 1 0.8 0.25 0.25
549 1 0.7 0.3 0.2
551 1 0.75 0.3 0.25
553 1 0.8 0.3 0.2
709 1 0.7 0.2 0.3
710 1 0.75 0.25 0.3
713 1 0.8 0.2 0.3
749 1 0.7 0.3 0.3
753 1 0.8 0.3 0.3
514 1 0.85 0.25 0.2
515 1 0.85 0.2 0.25
517 1 0.9 0.2 0.2
518 1 0.95 0.25 0.2
519 1 0.95 0.2 0.25
520 1 0.9 0.25 0.25
555 1 0.85 0.3 0.25
557 1 0.9 0.3 0.2
559 1 0.95 0.3 0.25
714 1 0.85 0.25 0.3
717 1 0.9 0.2 0.3
718 1 0.95 0.25 0.3
757 1 0.9 0.3 0.3
522 1 0.05 0.35 0.2
524 1 0 0.35 0.25
526 1 0.15 0.35 0.2
528 1 0.1 0.35 0.25
561 1 0 0.4 0.2
562 1 0.05 0.45 0.2
563 1 0.05 0.4 0.25
564 1 0 0.45 0.25
565 1 0.1 0.4 0.2
566 1 0.15 0.45 0.2
567 1 0.15 0.4 0.25
568 1 0.1 0.45 0.25
722 1 0.05 0.35 0.3
726 1 0.15 0.35 0.3
761 1 0 0.4 0.3
762 1 0.05 0.45 0.3
765 1 0.1 0.4 0.3
766 1 0.15 0.45 0.3
530 1 0.25 0.35 0.2
532 1 0.2 0.35 0.25
536 1 0.3 0.35 0.25
569 1 0.2 0.4 0.2
570 1 0.25 0.45 0.2
571 1 0.25 0.4 0.25
572 1 0.2 0.45 0.25
573 1 0.3 0.4 0.2
576 1 0.3 0.45 0.25
730 1 0.25 0.35 0.3
769 1 0.2 0.4 0.3
770 1 0.25 0.45 0.3
773 1 0.3 0.4 0.3
534 1 0.35 0.35 0.2
538 1 0.45 0.35 0.2
540 1 0.4 0.35 0.25
574 1 0.35 0.45 0.2
575 1 0.35 0.4 0.25
577 1 0.4 0.4 0.2
578 1 0.45 0.45 0.2
579 1 0.45 0.4 0.25
580 1 0.4 0.45 0.25
734 1 0.35 0.35 0.3
738 1 0.45 0.35 0.3
774 1 0.35 0.45 0.3
777 1 0.4 0.4 0.3
778 1 0.45 0.45 0.3
542 1 0.55 0.35 0.2
544 1 0.5 0.35 0.25
546 1 0.65 0.35 0.2
548 1 0.6 0.35 0.25
581 1 0.5 0.4 0.2
582 1 0.55 0.45 0.2
583 1 0.55 0.4 0.25
584 1 0.5 0.45 0.25
585 1 0.6 0.4 0.2
586 1 0.65 0.45 0.2
587 1 0.65 0.4 0.25
588 1 0.6 0.45 0.25
742 1 0.55 0.35 0.3
746 1 0.65 0.35 0.3
781 1 0.5 0.4 0.3
782 1 0.55 0.45 0.3
785 1 0.6 0.4 0.3
786 1 0.65 0.45 0.3
550 1 0.75 0.35 0.2
552 1 0.7 0.35 0.25
556 1 0.8 0.35 0.25
589 1 0.7 0.4 0.2
590 1 0.75 0.45 0.2
591 1 0.75 0.4 0.25
592 1 0.7 0.45 0.25
593 1 0.8 0.4 0.2
596 1 0.8 0.45 0.25
750 1 0.75 0.35 0.3
789 1 0.7 0.4 0.3
790 1 0.75 0.45 0.3
793 1 0.8 0.4 0.3
554 1 0.85 0.35 0.2
558 1 0.95 0.35 0.2
560 1 0.9 0.35 0.25
594 1 0.85 0.45 0.2
595 1 0.85 0.4 0.25
597 1 0.9 0.4 0.2
598 1 0.95 0.45 0.2
599 1 0.95 0.4 0.25
600 1 0.9 0.45 0.25
754 1 0.85 0.35 0.3
758 1 0.95 0.35 0.3
794 1 0.85 0.45 0.3
797 1 0.9 0.4 0.3
798 1 0.95 0.45 0.3
603 1 0.05 0 0.35
604 1 0 0.05 0.35
607 1 0.15 0 0.35
608 1 0.1 0.05 0.35
643 1 0.05 0.1 0.35
644 1 0 0.15 0.35
647 1 0.15 0.1 0.35
648 1 0.1 0.15 0.35
801 1 0 0 0.4
802 1 0.05 0.05 0.4
803 1 0.05 0 0.45
804 1 0 0.05 0.45
805 1 0.1 0 0.4
806 1 0.15 0.05 0.4
807 1 0.15 0 0.45
808 1 0.1 0.05 0.45
841 1 0 0.1 0.4
842 1 0.05 0.15 0.4
843 1 0.05 0.1 0.45
844 1 0 0.15 0.45
845 1 0.1 0.1 0.4
846 1 0.15 0.15 0.4
847 1 0.15 0.1 0.45
848 1 0.1 0.15 0.45
611 1 0.25 0 0.35
612 1 0.2 0.05 0.35
616 1 0.3 0.05 0.35
651 1 0.25 0.1 0.35
652 1 0.2 0.15 0.35
656 1 0.3 0.15 0.35
809 1 0.2 0 0.4
810 1 0.25 0.05 0.4
811 1 0.25 0 0.45
812 1 0.2 0.05 0.45
813 1 0.3 0 0.4
816 1 0.3 0.05 0.45
849 1 0.2 0.1 0.4
850 1 0.25 0.15 0.4
851 1 0.25 0.1 0.45
852 1 0.2 0.15 0.45
853 1 0.3 0.1 0.4
856 1 0.3 0.15 0.45
615 1 0.35 0 0.35
619 1 0.45 0 0.35
620 1 0.4 0.05 0.35
655 1 0.35 0.1 0.35
659 1 0.45 0.1 0.35
660 1 0.4 0.15 0.35
814 1 0.35 0.05 0.4
815 1 0.35 0 0.45
817 1 0.4 0 0.4
818 1 0.45 0.05 0.4
819 1 0.45 0 0.45
820 1 0.4 0.05 0.45
854 1 0.35 0.15 0.4
855 1 0.35 0.1 0.45
857 1 0.4 0.1 0.4
858 1 0.45 0.15 0.4
859 1 0.45 0.1 0.45
860 1 0.4 0.15 0.45
623 1 0.55 0 0.35
624 1 0.5 0.05 0.35
627 1 0.65 0 0.35
628 1 0.6 0.05 0.35
663 1 0.55 0.1 0.35
664 1 0.5 0.15 0.35
667 1 0.65 0.1 0.35
668 1 0.6 0.15 0.35
821 1 0.5 0 0.4
822 1 0.55 0.05 0.4
823 1 0.55 0 0.45
824 1 0.5 0.05 0.45
825 1 0.6 0 0.4
826 1 0.65 0.05 0.4
827 1 0.65 0 0.45
828 1 0.6 0.05 0.45
861 1 0.5 0.1 0.4
862 1 0.55 0.15 0.4
863 1 0.55 0.1 0.45
864 1 0.5 0.15 0.45
865 1 0.6 0.1 0.4
866 1 0.65 0.15 0.4
867 1 0.65 0.1 0.45
868 1 0.6 0.15 0.45
631 1 0.75 0 0.35
632 1 0.7 0.05 0.35
636 1 0.8 0.05 0.35
671 1 0.75 0.1 0.35
672 1 0.7 0.15 0.35
676 1 0.8 0.15 0.35
829 1 0.7 0 0.4
830 1 0.75 0.05 0.4
831 1 0.75 0 0.45
832 1 0.7 0.05 0.45
833 1 0.8 0 0.4
836 1 0.8 0.05 0.45
869 1 0.7 0.1 0.4
870 1 0.75 0.15 0.4
871 1 0.75 0.1 0.45
872 1 0.7 0.15 0.45
873 1 0.8 0.1 0.4
876 1 0.8 0.15 0.45
635 1 0.85 0 0.35
639 1 0.95 0 0.35
640 1 0.9 0.05 0.35
675 1 0.85 0.1 0.35
679 1 0.95 0.1 0.35
680 1 0.9 0.15 0.35
834 1 0.85 0.05 0.4
835 1 0.85 0 0.45
837 1 0.9 0 0.4
838 1 0.95 0.05 0.4
839 1 0.95 0 0.45
840 1 0.9 0.05 0.45
874 1 0.85 0.15 0.4
875 1 0.85 0.1 0.45
877 1 0.9 0.1 0.4
878 1 0.95 0.15 0.4
879 1 0.95 0.1 0.45
880 1 0.9 0.15 0.45
683 1 0.05 0.2 0.35
684 1 0 0.25 0.35
687 1 0.15 0.2 0.35
688 1 0.1 0.25 0.35
723 1 0.05 0.3 0.35
727 1 0.15 0.3 0.35
881 1 0 0.2 0.4
882 1 0.05 0.25 0.4
883 1 0.05 0.2 0.45
884 1 0 0.25 0.45
885 1 0.1 0.2 0.4
886 1 0.15 0.25 0.4
887 1 0.15 0.2 0.45
888 1 0.1 0.25 0.45
921 1 0 0.3 0.4
923 1 0.05 0.3 0.45
925 1 0.1 0.3 0.4
927 1 0.15 0.3 0.45
691 1 0.25 0.2 0.35
692 1 0.2 0.25 0.35
696 1 0.3 0.25 0.35
731 1 0.25 0.3 0.35
889 1 0.2 0.2 0.4
890 1 0.25 0.25 0.4
891 1 0.25 0.2 0.45
892 1 0.2 0.25 0.45
893 1 0.3 0.2 0.4
896 1 0.3 0.25 0.45
929 1 0.2 0.3 0.4
931 1 0.25 0.3 0.45
933 1 0.3 0.3 0.4
695 1 0.35 0.2 0.35
699 1 0.45 0.2 0.35
700 1 0.4 0.25 0.35
735 1 0.35 0.3 0.35
739 1 0.45 0.3 0.35
894 1 0.35 0.25 0.4
895 1 0.35 0.2 0.45
897 1 0.4 0.2 0.4
898 1 0.45 0.25 0.4
899 1 0.45 0.2 0.45
900 1 0.4 0.25 0.45
935 1 0.35 0.3 0.45
937 1 0.4 0.3 0.4
939 1 0.45 0.3 0.45
703 1 0.55 0.2 0.35
704 1 0.5 0.25 0.35
707 1 0.65 0.2 0.35
708 1 0.6 0.25 0.35
743 1 0.55 0.3 0.35
747 1 0.65 0.3 0.35
901 1 0.5 0.2 0.4
902 1 0.55 0.25 0.4
903 1 0.55 0.2 0.45
904 1 0.5 0.25 0.45
905 1 0.6 0.2 0.4
906 1 0.65 0.25 0.4
907 1 0.65 0.2 0.45
908 1 0.6 0.25 0.45
941 1 0.5 0.3 0.4
943 1 0.55 0.3 0.45
945 1 0.6 0.3 0.4
947 1 0.65 0.3 0.45
711 1 0.75 0.2 0.35
712 1 0.7 0.25 0.35
716 1 0.8 0.25 0.35
751 1 0.75 0.3 0.35
909 1 0.7 0.2 0.4
910 1 0.75 0.25 0.4
911 1 0.75 0.2 0.45
912 1 0.7 0.25 0.45
913 1 0.8 0.2 0.4
916 1 0.8 0.25 0.45
949 1 0.7 0.3 0.4
951 1 0.75 0.3 0.45
953 1 0.8 0.3 0.4
715 1 0.85 0.2 0.35
719 1 0.95 0.2 0.35
720 1 0.9 0.25 0.35
755 1 0.85 0.3 0.35
759 1 0.95 0.3 0.35
914 1 0.85 0.25 0.4
915 1 0.85 0.2 0.45
917 1 0.9 0.2 0.4
918 1 0.95 0.25 0.4
919 1 0.95 0.2 0.45
920 1 0.9 0.25 0.45
955 1 0.85 0.3 0.45
957 1 0.9 0.3 0.4
959 1 0.95 0.3 0.45
724 1 0 0.35 0.35
728 1 0.1 0.35 0.35
763 1 0.05 0.4 0.35
764 1 0 0.45 0.35
767 1 0.15 0.4 0.35
768 1 0.1 0.45 0.35
922 1 0.05 0.35 0.4
924 1 0 0.35 0.45
926 1 0.15 0.35 0.4
928 1 0.1 0.35 0.45
961 1 0 0.4 0.4
962 1 0.05 0.45 0.4
963 1 0.05 0.4 0.45
964 1 0 0.45 0.45
965 1 0.1 0.4 0.4
966 1 0.15 0.45 0.4
967 1 0.15 0.4 0.45
968 1 0.1 0.45 0.45
732 1 0.2 0.35 0.35
736 1 0.3 0.35 0.35
771 1 0.25 0.4 0.35
772 1 0.2 0.45 0.35
776 1 0.3 0.45 0.35
930 1 0.25 0.35 0.4
932 1 0.2 0.35 0.45
936 1 0.3 0.35 0.45
969 1 0.2 0.4 0.4
970 1 0.25 0.45 0.4
971 1 0.25 0.4 0.45
972 1 0.2 0.45 0.45
973 1 0.3 0.4 0.4
976 1 0.3 0.45 0.45
740 1 0.4 0.35 0.35
775 1 0.35 0.4 0.35
779 1 0.45 0.4 0.35
780 1 0.4 0.45 0.35
934 1 0.35 0.35 0.4
938 1 0.45 0.35 0.4
940 1 0.4 0.35 0.45
974 1 0.35 0.45 0.4
975 1 0.35 0.4 0.45
977 1 0.4 0.4 0.4
978 1 0.45 0.45 0.4
979 1 0.45 0.4 0.45
980 1 0.4 0.45 0.45
744 1 0.5 0.35 0.35
748 1 0.6 0.35 0.35
783 1 0.55 0.4 0.35
784 1 0.5 0.45 0.35
787 1 0.65 0.4 0.35
788 1 0.6 0.45 0.35
942 1 0.55 0.35 0.4
944 1 0.5 0.35 0.45
946 1 0.65 0.35 0.4
948 1 0.6 0.35 0.45
981 1 0.5 0.4 0.4
982 1 0.55 0.45 0.4
983 1 0.55 0.4 0.45
984 1 0.5 0.45 0.45
985 1 0.6 0.4 0.4
986 1 0.65 0.45 0.4
987 1 0.65 0.4 0.45
988 1 0.6 0.45 0.45
752 1 0.7 0.35 0.35
756 1 0.8 0.35 0.35
791 1 0.75 0.4 0.35
792 1 0.7 0.45 0.35
796 1 0.8 0.45 0.35
950 1 0.75 0.35 0.4
952 1 0.7 0.35 0.45
956 1 0.8 0.35 0.45
989 1 0.7 0.4 0.4
990 1 0.75 0.45 0.4
991 1 0.75 0.4 0.45
992 1 0.7 0.45 0.45
993 1 0.8 0.4 0.4
996 1 0.8 0.45 0.45
760 1 0.9 0.35 0.35
795 1 0.85 0.4 0.35
799 1 0.95 0.4 0.35
800 1 0.9 0.45 0.35
954 1 0.85 0.35 0.4
958 1 0.95 0.35 0.4
960 1 0.9 0.35 0.45
994 1 0.85 0.45 0.4
995 1 0.85 0.4 0.45
997 1 0.9 0.4 0.4
998 1 0.95 0.45 0.4
999 1 0.95 0.4 0.45
1000 1 0.9 0.45 0.45
1001 1 0 0 0.5
1002 1 0.05 0.05 0.5
1003 1 0.05 0 0.55
1004 1 0 0.05 0.55
1005 1 0.1 0 0.5
1006 1 0.15 0.05 0.5
1007 1 0.15 0 0.55
1008 1 0.1 0.05 0.55
1041 1 0 0.1 0.5
1042 1 0.05 0.15 0.5
1043 1 0.05 0.1 0.55
1044 1 0 0.15 0.55
1045 1 0.1 0.1 0.5
1046 1 0.15 0.15 0.5
1047 1 0.15 0.1 0.55
1048 1 0.1 0.15 0.55
1201 1 0 0 0.6
1202 1 0.05 0.05 0.6
1203 1 0.05 0 0.65
1204 1 0 0.05 0.65
1205 1 0.1 0 0.6
1206 1 0.15 0.05 0.6
1207 1 0.15 0 0.65
1208 1 0.1 0.05 0.65
1241 1 0 0.1 0.6
1242 1 0.05 0.15 0.6
1243 1 0.05 0.1 0.65
1244 1 0 0.15 0.65
1245 1 0.1 0.1 0.6
1246 1 0.15 0.15 0.6
1247 1 0.15 0.1 0.65
1248 1 0.1 0.15 0.65
1009 1 0.2 0 0.5
1010 1 0.25 0.05 0.5
1011 1 0.25 0 0.55
1012 1 0.2 0.05 0.55
1013 1 0.3 0 0.5
1016 1 0.3 0.05 0.55
1049 1 0.2 0.1 0.5
1050 1 0.25 0.15 0.5
1051 1 0.25 0.1 0.55
1052 1 0.2 0.15 0.55
1053 1 0.3 0.1 0.5
1056 1 0.3 0.15 0.55
1209 1 0.2 0 0.6
1210 1 0.25 0.05 0.6
1211 1 0.25 0 0.65
1212 1 0.2 0.05 0.65
1213 1 0.3 0 0.6
1216 1 0.3 0.05 0.65
1249 1 0.2 0.1 0.6
1250 1 0.25 0.15 0.6
1251 1 0.25 0.1 0.65
1252 1 0.2 0.15 0.65
1253 1 0.3 0.1 0.6
1256 1 0.3 0.15 0.65
1014 1 0.35 0.05 0.5
1015 1 0.35 0 0.55
1017 1 0.4 0 0.5
1018 1 0.45 0.05 0.5
1019 1 0.45 0 0.55
1020 1 0.4 0.05 0.55
1054 1 0.35 0.15 0.5
1055 1 0.35 0.1 0.55
1057 1 0.4 0.1 0.5
1058 1 0.45 0.15 0.5
1059 1 0.45 0.1 0.55
1060 1 0.4 0.15 0.55
1214 1 0.35 0.05 0.6
1215 1 0.35 0 0.65
1217 1 0.4 0 0.6
1218 1 0.45 0.05 0.6
1219 1 0.45 0 0.65
1220 1 0.4 0.05 0.65
1254 1 0.35 0.15 0.6
1255 1 0.35 0.1 0.65
1257 1 0.4 0.1 0.6
1258 1 0.45 0.15 0.6
1259 1 0.45 0.1 0.65
1260 1 0.4 0.15 0.65
1021 1 0.5 0 0.5
1022 1 0.55 0.05 0.5
1023 1 0.55 0 0.55
1024 1 0.5 0.05 0.55
1025 1 0.6 0 0.5
1026 1 0.65 0.05 0.5
1027 1 0.65 0 0.55
1028 1 0.6 0.05 0.55
1061 1 0.5 0.1 0.5
1062 1 0.55 0.15 0.5
1063 1 0.55 0.1 0.55
1064 1 0.5 0.15 0.55
1065 1 0.6 0.1 0.5
1066 1 0.65 0.15 0.5
1067 1 0.65 0.1 0.55
1068 1 0.6 0.15 0.55
1221 1 0.5 0 0.6
1222 1 0.55 0.05 0.6
1223 1 0.55 0 0.65
1224 1 0.5 0.05 0.65
1225 1 0.6 0 0.6
1226 1 0.65 0.05 0.6
1227 1 0.65 0 0.65
1228 1 0.6 0.05 0.65
1261 1 0.5 0.1 0.6
1262 1 0.55 0.15 0.6
1263 1 0.55 0.1 0.65
1264 1 0.5 0.15 0.65
1265 1 0.6 0.1 0.6
1266 1 0.65 0.15 0.6
1267 1 0.65 0.1 0.65
1268 1 0.6 0.15 0.65
1029 1 0.7 0 0.5
1030 1 0.75 0.05 0.5
1031 1 0.75 0 0.55
1032 1 0.7 0.05 0.55
1033 1 0.8 0 0.5
1036 1 0.8 0.05 0.55
1069 1 0.7 0.1 0.5
1070 1 0.75 0.15 0.5
1071 1 0.75 0.1 0.55
1072 1 0.7 0.15 0.55
1073 1 0.8 0.1 0.5
1076 1 0.8 0.15 0.55
1229 1 0.7 0 0.6
1230 1 0.75 0.05 0.6
1231 1 0.75 0 0.65
1232 1 0.7 0.05 0.65
1233 1 0.8 0 0.6
1236 1 0.8 0.05 0.65
1269 1 0.7 0.1 0.6
1270 1 0.75 0.15 0.6
1271 1 0.75 0.1 0.65
1272 1 0.7 0.15 0.65
1273 1 0.8 0.1 0.6
1276 1 0.8 0.15 0.65
1034 1 0.85 0.05 0.5
1035 1 0.85 0 0.55
1037 1 0.9 0 0.5
1038 1 0.95 0.05 0.5
1039 1 0.95 0 0.55
1040 1 0.9 0.05 0.55
1074 1 0.85 0.15 0.5
1075 1 0.85 0.1 0.55
1077 1 0.9 0.1 0.5
1078 1 0.95 0.15 0.5
1079 1 0.95 0.1 0.55
1080 1 0.9 0.15 0.55
1234 1 0.85 0.05 0.6
1235 1 0.85 0 0.65
1237 1 0.9 0 0.6
1238 1 0.95 0.05 0.6
1239 1 0.95 0 0.65
1240 1 0.9 0.05 0.65
1274 1 0.85 0.15 0.6
1275 1 0.85 0.1 0.65
1277 1 0.9 0.1 0.6
1278 1 0.95 0.15 0.6
1279 1 0.95 0.1 0.65
1280 1 0.9 0.15 0.65
1081 1 0 0.2 0.5
1082 1 0.05 0.25 0.5
1083 1 0.05 0.2 0.55
1084 1 0 0.25 0.55
1085 1 0.1 0.2 0.5
1086 1 0.15 0.25 0.5
1087 1 0.15 0.2 0.55
1088 1 0.1 0.25 0.55
1121 1 0 0.3 0.5
1123 1 0.05 0.3 0.55
1125 1 0.1 0.3 0.5
1127 1 0.15 0.3 0.55
1281 1 0 0.2 0.6
1282 1 0.05 0.25 0.6
1283 1 0.05 0.2 0.65
1284 1 0 0.25 0.65
1285 1 0.1 0.2 0.6
1286 1 0.15 0.25 0.6
1287 1 0.15 0.2 0.65
1288 1 0.1 0.25 0.65
1321 1 0 0.3 0.6
1323 1 0.05 0.3 0.65
1325 1 0.1 0.3 0.6
1327 1 0.15 0.3 0.65
1089 1 0.2 0.2 0.5
1090 1 0.25 0.25 0.5
1091 1 0.25 0.2 0.55
1092 1 0.2 0.25 0.55
1093 1 0.3 0.2 0.5
1096 1 0.3 0.25 0.55
1129 1 0.2 0.3 0.5
1131 1 0.25 0.3 0.55
1133 1 0.3 0.3 0.5
1289 1 0.2 0.2 0.6
1290 1 0.25 0.25 0.6
1291 1 0.25 0.2 0.65
1292 1 0.2 0.25 0.65
1293 1 0.3 0.2 0.6
1296 1 0.3 0.25 0.65
1329 1 0.2 0.3 0.6
1331 1 0.25 0.3 0.65
1333 1 0.3 0.3 0.6
1094 1 0.35 0.25 0.5
1095 1 0.35 0.2 0.55
1097 1 0.4 0.2 0.5
1098 1 0.45 0.25 0.5
1099 1 0.45 0.2 0.55
1100 1 0.4 0.25 0.55
1135 1 0.35 0.3 0.55
1137 1 0.4 0.3 0.5
1139 1 0.45 0.3 0.55
1294 1 0.35 0.25 0.6
1295 1 0.35 0.2 0.65
1297 1 0.4 0.2 0.6
1298 1 0.45 0.25 0.6
1299 1 0.45 0.2 0.65
1300 1 0.4 0.25 0.65
1335 1 0.35 0.3 0.65
1337 1 0.4 0.3 0.6
1339 1 0.45 0.3 0.65
1101 1 0.5 0.2 0.5
1102 1 0.55 0.25 0.5
1103 1 0.55 0.2 0.55
1104 1 0.5 0.25 0.55
1105 1 0.6 0.2 0.5
1106 1 0.65 0.25 0.5
1107 1 0.65 0.2 0.55
1108 1 0.6 0.25 0.55
1141 1 0.5 0.3 0.5
1143 1 0.55 0.3 0.55
1145 1 0.6 0.3 0.5
1147 1 0.65 0.3 0.55
1301 1 0.5 0.2 0.6
1302 1 0.55 0.25 0.6
1303 1 0.55 0.2 0.65
1304 1 0.5 0.25 0.65
1305 1 0.6 0.2 0.6
1306 1 0.65 0.25 0.6
1307 1 0.65 0.2 0.65
1308 1 0.6 0.25 0.65
1341 1 0.5 0.3 0.6
1343 1 0.55 0.3 0.65
1345 1 0.6 0.3 0.6
1347 1 0.65 0.3 0.65
1109 1 0.7 0.2 0.5
1110 1 0.75 0.25 0.5
1111 1 0.75 0.2 0.55
1112 1 0.7 0.25 0.55
1113 1 0.8 0.2 0.5
1116 1 0.8 0.25 0.55
1149 1 0.7 0.3 0.5
1151 1 0.75 0.3 0.55
1153 1 0.8 0.3 0.5
1309 1 0.7 0.2 0.6
1310 1 0.75 0.25 0.6
1311 1 0.75 0.2 0.65
1312 1 0.7 0.25 0.65
1313 1 0.8 0.2 0.6
1316 1 0.8 0.25 0.65
1349 1 0.7 0.3 0.6
1351 1 0.75 0.3 0.65
1353 1 0.8 0.3 0.6
1114 1 0.85 0.25 0.5
1115 1 0.85 0.2 0.55
1117 1 0.9 0.2 0.5
1118 1 0.95 0.25 0.5
1119 1 0.95 0.2 0.55
1120 1 0.9 0.25 0.55
1155 1 0.85 0.3 0.55
1157 1 0.9 0.3 0.5
1159 1 0.95 0.3 0.55
1314 1 0.85 0.25 0.6
1315 1 0.85 0.2 0.65
1317 1 0.9 0.2 0.6
1318 1 0.95 0.25 0.6
1319 1 0.95 0.2 0.65
1320 1 0.9 0.25 0.65
1355 1 0.85 0.3 0.65
1357 1 0.9 0.3 0.6
1359 1 0.95 0.3 0.65
1122 1 0.05 0.35 0.5
1124 1 0 0.35 0.55
1126 1 0.15 0.35 0.5
1128 1 0.1 0.35 0.55
1161 1 0 0.4 0.5
1162 1 0.05 0.45 0.5
1163 1 0.05 0.4 0.55
1164 1 0 0.45 0.55
1165 1 0.1 0.4 0.5
1166 1 0.15 0.45 0.5
1167 1 0.15 0.4 0.55
1168 1 0.1 0.45 0.55
1322 1 0.05 0.35 0.6
1324 1 0 0.35 0.65
1326 1 0.15 0.35 0.6
1328 1 0.1 0.35 0.65
1361 1 0 0.4 0.6
1362 1 0.05 0.45 0.6
1363 1 0.05 0.4 0.65
1364 1 0 0.45 0.65
1365 1 0.1 0.4 0.6
1366 1 0.15 0.45 0.6
1367 1 0.15 0.4 0.65
1368 1 0.1 0.45 0.65
1130 1 0.25 0.35 0.5
1132 1 0.2 0.35 0.55
1136 1 0.3 0.35 0.55
1169 1 0.2 0.4 0.5
1170 1 0.25 0.45 0.5
1171 1 0.25 0.4 0.55
1172 1 0.2 0.45 0.55
1173 1 0.3 0.4 0.5
1176 1 0.3 0.45 0.55
1330 1 0.25 0.35 0.6
1332 1 0.2 0.35 0.65
1336 1 0.3 0.35 0.65
1369 1 0.2 0.4 0.6
1370 1 0.25 0.45 0.6
1371 1 0.25 0.4 0.65
1372 1 0.2 0.45 0.65
1373 1 0.3 0.4 0.6
1376 1 0.3 0.45 0.65
1134 1 0.35 0.35 0.5
1138 1 0.45 0.35 0.5
1140 1 0.4 0.35 0.55
1174 1 0.35 0.45 0.5
1175 1 0.35 0.4 0.55
1177 1 0.4 0.4 0.5
1178 1 0.45 0.45 0.5
1179 1 0.45 0.4 0.55
1180 1 0.4 0.45 0.55
1334 1 0.35 0.35 0.6
1338 1 0.45 0.35 0.6
1340 1 0.4 0.35 0.65
1374 1 0.35 0.45 0.6
1375 1 0.35 0.4 0.65
1377 1 0.4 0.4 0.6
1378 1 0.45 0.45 0.6
1379 1 0.45 0.4 0.65
1380 1 0.4 0.45 0.65
1142 1 0.55 0.35 0.5
1144 1 0.5 0.35 0.55
1146 1 0.65 0.35 0.5
1148 1 0.6 0.35 0.55
1181 1 0.5 0.4 0.5
1182 1 0.55 0.45 0.5
1183 1 0.55 0.4 0.55
1184 1 0.5 0.45 0.55
1185 1 0.6 0.4 0.5
1186 1 0.65 0.45 0.5
1187 1 0.65 0.4 0.55
1188 1 0.6 0.45 0.55
1342 1 0.55 0.35 0.6
1344 1 0.5 0.35 0.65
1346 1 0.65 0.35 0.6
1348 1 0.6 0.35 0.65
1381 1 0.5 0.4 0.6
1382 1 0.55 0.45 0.6
1383 1 0.55 0.4 0.65
1384 1 0.5 0.45 0.65
1385 1 0.6 0.4 0.6
1386 1 0.65 0.45 0.6
1387 1 0.65 0.4 0.65
1388 1 0.6 0.45 0.65
1150 1 0.75 0.35 0.5
1152 1 0.7 0.35 0.55
1156 1 0.8 0.35 0.55
1189 1 0.7 0.4 0.5
1190 1 0.75 0.45 0.5
1191 1 0.75 0.4 0.55
1192 1 0.7 0.45 0.55
1193 1 0.8 0.4 0.5
1196 1 0.8 0.45 0.55
1350 1 0.75 0.35 0.6
1352 1 0.7 0.35 0.65
1356 1 0.8 0.35 0.65
1389 1 0.7 0.4 0.6
1390 1 0.75 0.45 0.6
1391 1 0.75 0.4 0.65
1392 1 0.7 0.45 0.65
1393 1 0.8 0.4 0.6
1396 1 0.8 0.45 0.65
1154 1 0.85 0.35 0.5
1158 1 0.95 0.35 0.5
1160 1 0.9 0.35 0.55
1194 1 0.85 0.45 0.5
1195 1 0.85 0.4 0.55
1197 1 0.9 0.4 0.5
1198 1 0.95 0.45 0.5
1199 1 0.95 0.4 0.55
1200 1 0.9 0.45 0.55
1354 1 0.85 0.35 0.6
1358 1 0.95 0.35 0.6
1360 1 0.9 0.35 0.65
1394 1 0.85 0.45 0.6
1395 1 0.85 0.4 0.65
1397 1 0.9 0.4 0.6
1398 1 0.95 0.45 0.6
1399 1 0.95 0.4 0.65
1400 1 0.9 0.45 0.65
1401 1 0 0 0.7
1402 1 0.05 0.05 0.7
1403 1 0.05 0 0.75
1404 1 0 0.05 0.75
1405 1 0.1 0 0.7
1406 1 0.15 0.05 0.7
1407 1 0.15 0 0.75
1408 1 0.1 0.05 0.75
1441 1 0 0.1 0.7
1442 1 0.05 0.15 0.7
1443 1 0.05 0.1 0.75
1444 1 0 0.15 0.75
1445 1 0.1 0.1 0.7
1446 1 0.15 0.15 0.7
1447 1 0.15 0.1 0.75
1448 1 0.1 0.15 0.75
1601 1 0 0 0.8
1602 1 0.05 0.05 0.8
1605 1 0.1 0 0.8
1606 1 0.15 0.05 0.8
1641 1 0 0.1 0.8
1642 1 0.05 0.15 0.8
1645 1 0.1 0.1 0.8
1646 1 0.15 0.15 0.8
1409 1 0.2 0 0.7
1410 1 0.25 0.05 0.7
1411 1 0.25 0 0.75
1412 1 0.2 0.05 0.75
1413 1 0.3 0 0.7
1416 1 0.3 0.05 0.75
1449 1 0.2 0.1 0.7
1450 1 0.25 0.15 0.7
1451 1 0.25 0.1 0.75
1452 1 0.2 0.15 0.75
1453 1 0.3 0.1 0.7
1456 1 0.3 0.15 0.75
1609 1 0.2 0 0.8
1610 1 0.25 0.05 0.8
1613 1 0.3 0 0.8
1649 1 0.2 0.1 0.8
1650 1 0.25 0.15 0.8
1653 1 0.3 0.1 0.8
1414 1 0.35 0.05 0.7
1415 1 0.35 0 0.75
1417 1 0.4 0 0.7
1418 1 0.45 0.05 0.7
1419 1 0.45 0 0.75
1420 1 0.4 0.05 0.75
1454 1 0.35 0.15 0.7
1455 1 0.35 0.1 0.75
1457 1 0.4 0.1 0.7
1458 1 0.45 0.15 0.7
1459 1 0.45 0.1 0.75
1460 1 0.4 0.15 0.75
1614 1 0.35 0.05 0.8
1617 1 0.4 0 0.8
1618 1 0.45 0.05 0.8
1654 1 0.35 0.15 0.8
1657 1 0.4 0.1 0.8
1658 1 0.45 0.15 0.8
1421 1 0.5 0 0.7
1422 1 0.55 0.05 0.7
1423 1 0.55 0 0.75
1424 1 0.5 0.05 0.75
1425 1 0.6 0 0.7
1426 1 0.65 0.05 0.7
1427 1 0.65 0 0.75
1428 1 0.6 0.05 0.75
1461 1 0.5 0.1 0.7
1462 1 0.55 0.15 0.7
1463 1 0.55 0.1 0.75
1464 1 0.5 0.15 0.75
1465 1 0.6 0.1 0.7
1466 1 0.65 0.15 0.7
1467 1 0.65 0.1 0.75
1468 1 0.6 0.15 0.75
1621 1 0.5 0 0.8
1622 1 0.55 0.05 0.8
1625 1 0.6 0 0.8
1626 1 0.65 0.05 0.8
1661 1 0.5 0.1 0.8
1662 1 0.55 0.15 0.8
1665 1 0.6 0.1 0.8
1666 1 0.65 0.15 0.8
1429 1 0.7 0 0.7
1430 1 0.75 0.05 0.7
1431 1 0.75 0 0.75
1432 1 0.7 0.05 0.75
1433 1 0.8 0 0.7
1436 1 0.8 0.05 0.75
1469 1 0.7 0.1 0.7
1470 1 0.75 0.15 0.7
1471 1 0.75 0.1 0.75
1472 1 0.7 0.15 0.75
1473 1 0.8 0.1 0.7
1476 1 0.8 0.15 0.75
1629 1 0.7 0 0.8
1630 1 0.75 0.05 0.8
1633 1 0.8 0 0.8
1669 1 0.7 0.1 0.8
1670 1 0.75 0.15 0.8
1673 1 0.8 0.1 0.8
1434 1 0.85 0.05 0.7
1435 1 0.85 0 0.75
1437 1 0.9 0 0.7
1438 1 0.95 0.05 0.7
1439 1 0.95 0 0.75
1440 1 0.9 0.05 0.75
1474 1 0.85 0.15 0.7
1475 1 0.85 0.1 0.75
1477 1 0.9 0.1 0.7
1478 1 0.95 0.15 0.7
1479 1 0.95 0.1 0.75
1480 1 0.9 0.15 0.75
1634 1 0.85 0.05 0.8
1637 1 0.9 0 0.8
1638 1 0.95 0.05 0.8
1674 1 0.85 0.15 0.8
1677 1 0.9 0.1 0.8
1678 1 0.95 0.15 0.8
1481 1 0 0.2 0.7
1482 1 0.05 0.25 0.7
1483 1 0.05 0.2 0.75
1484 1 0 0.25 0.75
1485 1 0.1 0.2 0.7
1486 1 0.15 0.25 0.7
1487 1 0.15 0.2 0.75
1488 1 0.1 0.25 0.75
1521 1 0 0.3 0.7
1523 1 0.05 0.3 0.75
1525 1 0.1 0.3 0.7
1527 1 0.15 0.3 0.75
1681 1 0 0.2 0.8
1682 1 0.05 0.25 0.8
1685 1 0.1 0.2 0.8
1686 1 0.15 0.25 0.8
1721 1 0 0.3 0.8
1725 1 0.1 0.3 0.8
1489 1 0.2 0.2 0.7
1490 1 0.25 0.25 0.7
1491 1 0.25 0.2 0.75